 Entering Gaussian System, Link 0=/home/madghost/g09/g09
 Input=2a_g09.gjf
 Output=2a_g09.log
 Initial command:
 /home/madghost/g09/l1.exe "/scr/pogonin/2a_g09/Gau-2971.inp" -scrdir="/scr/pogonin/2a_g09/"
 Entering Link 1 = /home/madghost/g09/l1.exe PID=      2973.
  
 Copyright (c) 1988,1990,1992,1993,1995,1998,2003,2009,2013,
            Gaussian, Inc.  All Rights Reserved.
  
 This is part of the Gaussian(R) 09 program.  It is based on
 the Gaussian(R) 03 system (copyright 2003, Gaussian, Inc.),
 the Gaussian(R) 98 system (copyright 1998, Gaussian, Inc.),
 the Gaussian(R) 94 system (copyright 1995, Gaussian, Inc.),
 the Gaussian 92(TM) system (copyright 1992, Gaussian, Inc.),
 the Gaussian 90(TM) system (copyright 1990, Gaussian, Inc.),
 the Gaussian 88(TM) system (copyright 1988, Gaussian, Inc.),
 the Gaussian 86(TM) system (copyright 1986, Carnegie Mellon
 University), and the Gaussian 82(TM) system (copyright 1983,
 Carnegie Mellon University). Gaussian is a federally registered
 trademark of Gaussian, Inc.
  
 This software contains proprietary and confidential information,
 including trade secrets, belonging to Gaussian, Inc.
  
 This software is provided under written license and may be
 used, copied, transmitted, or stored only in accord with that
 written license.
  
 The following legend is applicable only to US Government
 contracts under FAR:
  
                    RESTRICTED RIGHTS LEGEND
  
 Use, reproduction and disclosure by the US Government is
 subject to restrictions as set forth in subparagraphs (a)
 and (c) of the Commercial Computer Software - Restricted
 Rights clause in FAR 52.227-19.
  
 Gaussian, Inc.
 340 Quinnipiac St., Bldg. 40, Wallingford CT 06492
  
  
 ---------------------------------------------------------------
 Warning -- This program may not be used in any manner that
 competes with the business of Gaussian, Inc. or will provide
 assistance to any competitor of Gaussian, Inc.  The licensee
 of this program is prohibited from giving any competitor of
 Gaussian, Inc. access to this program.  By using this program,
 the user acknowledges that Gaussian, Inc. is engaged in the
 business of creating and licensing software in the field of
 computational chemistry and represents and warrants to the
 licensee that it is not a competitor of Gaussian, Inc. and that
 it will not use this program in any manner prohibited above.
 ---------------------------------------------------------------
  

 Cite this work as:
 Gaussian 09, Revision D.01,
 M. J. Frisch, G. W. Trucks, H. B. Schlegel, G. E. Scuseria, 
 M. A. Robb, J. R. Cheeseman, G. Scalmani, V. Barone, B. Mennucci, 
 G. A. Petersson, H. Nakatsuji, M. Caricato, X. Li, H. P. Hratchian, 
 A. F. Izmaylov, J. Bloino, G. Zheng, J. L. Sonnenberg, M. Hada, 
 M. Ehara, K. Toyota, R. Fukuda, J. Hasegawa, M. Ishida, T. Nakajima, 
 Y. Honda, O. Kitao, H. Nakai, T. Vreven, J. A. Montgomery, Jr., 
 J. E. Peralta, F. Ogliaro, M. Bearpark, J. J. Heyd, E. Brothers, 
 K. N. Kudin, V. N. Staroverov, T. Keith, R. Kobayashi, J. Normand, 
 K. Raghavachari, A. Rendell, J. C. Burant, S. S. Iyengar, J. Tomasi, 
 M. Cossi, N. Rega, J. M. Millam, M. Klene, J. E. Knox, J. B. Cross, 
 V. Bakken, C. Adamo, J. Jaramillo, R. Gomperts, R. E. Stratmann, 
 O. Yazyev, A. J. Austin, R. Cammi, C. Pomelli, J. W. Ochterski, 
 R. L. Martin, K. Morokuma, V. G. Zakrzewski, G. A. Voth, 
 P. Salvador, J. J. Dannenberg, S. Dapprich, A. D. Daniels, 
 O. Farkas, J. B. Foresman, J. V. Ortiz, J. Cioslowski, 
 and D. J. Fox, Gaussian, Inc., Wallingford CT, 2013.
 
 ******************************************
 Gaussian 09:  EM64L-G09RevD.01 24-Apr-2013
                 5-Feb-2022 
 ******************************************
 %Chk=2a_g09
 % nproc=24
 Will use up to   24 processors via shared memory.
 % mem=50000mb
 -----------------------------------------------------
 #P b3lyp/gen opt(tight) integral(Grid=ultrafine) freq
 -----------------------------------------------------
 1/7=10,14=-1,18=20,19=15,26=4,38=1/1,3;
 2/9=110,12=2,17=6,18=5,40=1/2;
 3/5=7,11=2,16=1,25=1,30=1,71=1,74=-5,75=-5/1,2,3;
 4//1;
 5/5=2,38=5/2;
 6/7=2,8=2,9=2,10=2,28=1/1;
 7//1,2,3,16;
 1/7=10,14=-1,18=20,19=15,26=4/3(2);
 2/9=110/2;
 99//99;
 2/9=110/2;
 3/5=7,6=1,11=2,16=1,25=1,30=1,71=1,74=-5,75=-5,82=7/1,2,3;
 4/5=5,16=3,69=1/1;
 5/5=2,38=5/2;
 7//1,2,3,16;
 1/7=10,14=-1,18=20,19=15,26=4/3(-5);
 2/9=110/2;
 6/7=2,8=2,9=2,10=2,19=2,28=1/1;
 99/9=1/99;
 Leave Link    1 at Sat Feb  5 13:59:55 2022, MaxMem=  6553600000 cpu:         2.5
 (Enter /home/madghost/g09/l101.exe)
 ----------------------------------------------------------------------
 6-31++G** 6-31G + diffuse and polarization functions on all atoms Data
  from Gaussian 09/GAMESS https://www.basissetexchange.org/basis/6-31++
 g_st__st_/format/gaussian94/?version=1&elements=1,6,7,8
 ----------------------------------------------------------------------
 Symbolic Z-matrix:
 Charge =  0 Multiplicity = 1
 6                    -4.29031  -0.80269  -0.08809 
 6                    -3.66421   0.46987  -0.00687 
 6                    -3.49024  -1.95442  -0.14686 
 1                    -3.96757  -2.92633  -0.20858 
 6                    -2.27117   0.56655   0.01197 
 6                    -2.10332  -1.8498   -0.12482 
 1                    -1.79108   1.53513   0.07398 
 1                    -1.48066  -2.73733  -0.16862 
 6                    -1.48125  -0.594    -0.04852 
 6                    -4.44586   1.67232   0.05821 
 7                    -5.05107   2.66431   0.11087 
 6                    -5.7163   -0.93053  -0.10921 
 7                    -6.87173  -1.06905  -0.1294 
 7                    -0.0633   -0.60355  -0.02956 
 7                     0.45701   0.55211  -0.02061 
 6                     3.56697   2.43359  -0.00236 
 6                     2.22803   2.02906  -0.01585 
 6                     1.84594   0.68506   0.00357 
 6                     2.87079  -0.34131   0.04459 
 6                     4.24608   0.07693   0.05872 
 6                     4.56393   1.47345   0.03284 
 6                     5.28543  -0.88645   0.09963 
 6                     4.99319  -2.23496   0.12834 
 6                     3.64815  -2.6557    0.11693 
 6                     2.613    -1.73742   0.07537 
 1                     6.31352  -0.54326   0.10868 
 1                     5.79484  -2.96673   0.16009 
 1                     3.41583  -3.71671   0.1409 
 1                     1.58785  -2.07343   0.06518 
 1                     3.81958   3.49068  -0.01884 
 1                     1.4365    2.77037  -0.04389 
 8                     5.88428   1.79505   0.04742 
 1                     5.99599   2.75501   0.01976 
 
 NAtoms=     33 NQM=       33 NQMF=       0 NMMI=      0 NMMIF=      0
                NMic=       0 NMicF=      0.
                    Isotopes and Nuclear Properties:
 (Nuclear quadrupole moments (NQMom) in fm**2, nuclear magnetic moments (NMagM)
  in nuclear magnetons)

  Atom         1           2           3           4           5           6           7           8           9          10
 IAtWgt=          12          12          12           1          12          12           1           1          12          12
 AtmWgt=  12.0000000  12.0000000  12.0000000   1.0078250  12.0000000  12.0000000   1.0078250   1.0078250  12.0000000  12.0000000
 NucSpn=           0           0           0           1           0           0           1           1           0           0
 AtZEff=   0.0000000   0.0000000   0.0000000   0.0000000   0.0000000   0.0000000   0.0000000   0.0000000   0.0000000   0.0000000
 NQMom=    0.0000000   0.0000000   0.0000000   0.0000000   0.0000000   0.0000000   0.0000000   0.0000000   0.0000000   0.0000000
 NMagM=    0.0000000   0.0000000   0.0000000   2.7928460   0.0000000   0.0000000   2.7928460   2.7928460   0.0000000   0.0000000
 AtZNuc=   6.0000000   6.0000000   6.0000000   1.0000000   6.0000000   6.0000000   1.0000000   1.0000000   6.0000000   6.0000000

  Atom        11          12          13          14          15          16          17          18          19          20
 IAtWgt=          14          12          14          14          14          12          12          12          12          12
 AtmWgt=  14.0030740  12.0000000  14.0030740  14.0030740  14.0030740  12.0000000  12.0000000  12.0000000  12.0000000  12.0000000
 NucSpn=           2           0           2           2           2           0           0           0           0           0
 AtZEff=   0.0000000   0.0000000   0.0000000   0.0000000   0.0000000   0.0000000   0.0000000   0.0000000   0.0000000   0.0000000
 NQMom=    2.0440000   0.0000000   2.0440000   2.0440000   2.0440000   0.0000000   0.0000000   0.0000000   0.0000000   0.0000000
 NMagM=    0.4037610   0.0000000   0.4037610   0.4037610   0.4037610   0.0000000   0.0000000   0.0000000   0.0000000   0.0000000
 AtZNuc=   7.0000000   6.0000000   7.0000000   7.0000000   7.0000000   6.0000000   6.0000000   6.0000000   6.0000000   6.0000000

  Atom        21          22          23          24          25          26          27          28          29          30
 IAtWgt=          12          12          12          12          12           1           1           1           1           1
 AtmWgt=  12.0000000  12.0000000  12.0000000  12.0000000  12.0000000   1.0078250   1.0078250   1.0078250   1.0078250   1.0078250
 NucSpn=           0           0           0           0           0           1           1           1           1           1
 AtZEff=   0.0000000   0.0000000   0.0000000   0.0000000   0.0000000   0.0000000   0.0000000   0.0000000   0.0000000   0.0000000
 NQMom=    0.0000000   0.0000000   0.0000000   0.0000000   0.0000000   0.0000000   0.0000000   0.0000000   0.0000000   0.0000000
 NMagM=    0.0000000   0.0000000   0.0000000   0.0000000   0.0000000   2.7928460   2.7928460   2.7928460   2.7928460   2.7928460
 AtZNuc=   6.0000000   6.0000000   6.0000000   6.0000000   6.0000000   1.0000000   1.0000000   1.0000000   1.0000000   1.0000000

  Atom        31          32          33
 IAtWgt=           1          16           1
 AtmWgt=   1.0078250  15.9949146   1.0078250
 NucSpn=           1           0           1
 AtZEff=   0.0000000   0.0000000   0.0000000
 NQMom=    0.0000000   0.0000000   0.0000000
 NMagM=    2.7928460   0.0000000   2.7928460
 AtZNuc=   1.0000000   8.0000000   1.0000000
 Leave Link  101 at Sat Feb  5 13:59:56 2022, MaxMem=  6553600000 cpu:         7.6
 (Enter /home/madghost/g09/l103.exe)

 GradGradGradGradGradGradGradGradGradGradGradGradGradGradGradGradGradGrad
 Berny optimization.
 Initialization pass.
                           ----------------------------
                           !    Initial Parameters    !
                           ! (Angstroms and Degrees)  !
 --------------------------                            --------------------------
 ! Name  Definition              Value          Derivative Info.                !
 --------------------------------------------------------------------------------
 ! R1    R(1,2)                  1.4206         estimate D2E/DX2                !
 ! R2    R(1,3)                  1.4036         estimate D2E/DX2                !
 ! R3    R(1,12)                 1.4319         estimate D2E/DX2                !
 ! R4    R(2,5)                  1.3965         estimate D2E/DX2                !
 ! R5    R(2,10)                 1.4357         estimate D2E/DX2                !
 ! R6    R(3,4)                  1.0846         estimate D2E/DX2                !
 ! R7    R(3,6)                  1.391          estimate D2E/DX2                !
 ! R8    R(5,7)                  1.0828         estimate D2E/DX2                !
 ! R9    R(5,9)                  1.4052         estimate D2E/DX2                !
 ! R10   R(6,8)                  1.085          estimate D2E/DX2                !
 ! R11   R(6,9)                  1.4035         estimate D2E/DX2                !
 ! R12   R(9,14)                 1.4181         estimate D2E/DX2                !
 ! R13   R(10,11)                1.1632         estimate D2E/DX2                !
 ! R14   R(12,13)                1.1639         estimate D2E/DX2                !
 ! R15   R(14,15)                1.2674         estimate D2E/DX2                !
 ! R16   R(15,18)                1.3955         estimate D2E/DX2                !
 ! R17   R(16,17)                1.3988         estimate D2E/DX2                !
 ! R18   R(16,21)                1.3846         estimate D2E/DX2                !
 ! R19   R(16,30)                1.087          estimate D2E/DX2                !
 ! R20   R(17,18)                1.3974         estimate D2E/DX2                !
 ! R21   R(17,31)                1.0848         estimate D2E/DX2                !
 ! R22   R(18,19)                1.451          estimate D2E/DX2                !
 ! R23   R(19,20)                1.4375         estimate D2E/DX2                !
 ! R24   R(19,25)                1.42           estimate D2E/DX2                !
 ! R25   R(20,21)                1.4325         estimate D2E/DX2                !
 ! R26   R(20,22)                1.4178         estimate D2E/DX2                !
 ! R27   R(21,32)                1.359          estimate D2E/DX2                !
 ! R28   R(22,23)                1.3801         estimate D2E/DX2                !
 ! R29   R(22,26)                1.0839         estimate D2E/DX2                !
 ! R30   R(23,24)                1.4094         estimate D2E/DX2                !
 ! R31   R(23,27)                1.0859         estimate D2E/DX2                !
 ! R32   R(24,25)                1.3844         estimate D2E/DX2                !
 ! R33   R(24,28)                1.0864         estimate D2E/DX2                !
 ! R34   R(25,29)                1.0789         estimate D2E/DX2                !
 ! R35   R(32,33)                0.9668         estimate D2E/DX2                !
 ! A1    A(2,1,3)              119.0931         estimate D2E/DX2                !
 ! A2    A(2,1,12)             121.3158         estimate D2E/DX2                !
 ! A3    A(3,1,12)             119.591          estimate D2E/DX2                !
 ! A4    A(1,2,5)              120.161          estimate D2E/DX2                !
 ! A5    A(1,2,10)             120.8589         estimate D2E/DX2                !
 ! A6    A(5,2,10)             118.98           estimate D2E/DX2                !
 ! A7    A(1,3,4)              119.1334         estimate D2E/DX2                !
 ! A8    A(1,3,6)              120.3952         estimate D2E/DX2                !
 ! A9    A(4,3,6)              120.4713         estimate D2E/DX2                !
 ! A10   A(2,5,7)              120.3294         estimate D2E/DX2                !
 ! A11   A(2,5,9)              120.1983         estimate D2E/DX2                !
 ! A12   A(7,5,9)              119.4723         estimate D2E/DX2                !
 ! A13   A(3,6,8)              120.6638         estimate D2E/DX2                !
 ! A14   A(3,6,9)              120.6681         estimate D2E/DX2                !
 ! A15   A(8,6,9)              118.6679         estimate D2E/DX2                !
 ! A16   A(5,9,6)              119.4837         estimate D2E/DX2                !
 ! A17   A(5,9,14)             124.5468         estimate D2E/DX2                !
 ! A18   A(6,9,14)             115.9681         estimate D2E/DX2                !
 ! A19   A(9,14,15)            113.8552         estimate D2E/DX2                !
 ! A20   A(14,15,18)           119.7082         estimate D2E/DX2                !
 ! A21   A(17,16,21)           119.271          estimate D2E/DX2                !
 ! A22   A(17,16,30)           120.2357         estimate D2E/DX2                !
 ! A23   A(21,16,30)           120.4932         estimate D2E/DX2                !
 ! A24   A(16,17,18)           122.667          estimate D2E/DX2                !
 ! A25   A(16,17,31)           120.0696         estimate D2E/DX2                !
 ! A26   A(18,17,31)           117.2634         estimate D2E/DX2                !
 ! A27   A(15,18,17)           111.3175         estimate D2E/DX2                !
 ! A28   A(15,18,19)           129.5006         estimate D2E/DX2                !
 ! A29   A(17,18,19)           119.1819         estimate D2E/DX2                !
 ! A30   A(18,19,20)           118.047          estimate D2E/DX2                !
 ! A31   A(18,19,25)           124.5981         estimate D2E/DX2                !
 ! A32   A(20,19,25)           117.3547         estimate D2E/DX2                !
 ! A33   A(19,20,21)           119.7187         estimate D2E/DX2                !
 ! A34   A(19,20,22)           120.2609         estimate D2E/DX2                !
 ! A35   A(21,20,22)           120.0204         estimate D2E/DX2                !
 ! A36   A(16,21,20)           121.1137         estimate D2E/DX2                !
 ! A37   A(16,21,32)           122.3935         estimate D2E/DX2                !
 ! A38   A(20,21,32)           116.4926         estimate D2E/DX2                !
 ! A39   A(20,22,23)           120.6183         estimate D2E/DX2                !
 ! A40   A(20,22,26)           118.7149         estimate D2E/DX2                !
 ! A41   A(23,22,26)           120.6668         estimate D2E/DX2                !
 ! A42   A(22,23,24)           119.5785         estimate D2E/DX2                !
 ! A43   A(22,23,27)           120.1819         estimate D2E/DX2                !
 ! A44   A(24,23,27)           120.2396         estimate D2E/DX2                !
 ! A45   A(23,24,25)           121.053          estimate D2E/DX2                !
 ! A46   A(23,24,28)           119.6998         estimate D2E/DX2                !
 ! A47   A(25,24,28)           119.2472         estimate D2E/DX2                !
 ! A48   A(19,25,24)           121.1346         estimate D2E/DX2                !
 ! A49   A(19,25,29)           118.587          estimate D2E/DX2                !
 ! A50   A(24,25,29)           120.2784         estimate D2E/DX2                !
 ! A51   A(21,32,33)           110.2983         estimate D2E/DX2                !
 ! A52   L(2,10,11,13,-1)      181.6356         estimate D2E/DX2                !
 ! A53   L(1,12,13,11,-1)      181.719          estimate D2E/DX2                !
 ! A54   L(2,10,11,13,-2)      180.0722         estimate D2E/DX2                !
 ! A55   L(1,12,13,11,-2)      179.9485         estimate D2E/DX2                !
 ! D1    D(3,1,2,5)              0.0865         estimate D2E/DX2                !
 ! D2    D(3,1,2,10)          -179.854          estimate D2E/DX2                !
 ! D3    D(12,1,2,5)          -179.9944         estimate D2E/DX2                !
 ! D4    D(12,1,2,10)            0.0651         estimate D2E/DX2                !
 ! D5    D(2,1,3,4)            179.9822         estimate D2E/DX2                !
 ! D6    D(2,1,3,6)              0.0458         estimate D2E/DX2                !
 ! D7    D(12,1,3,4)             0.0617         estimate D2E/DX2                !
 ! D8    D(12,1,3,6)          -179.8747         estimate D2E/DX2                !
 ! D9    D(1,2,5,7)           -179.9902         estimate D2E/DX2                !
 ! D10   D(1,2,5,9)             -0.0354         estimate D2E/DX2                !
 ! D11   D(10,2,5,7)            -0.0486         estimate D2E/DX2                !
 ! D12   D(10,2,5,9)           179.9063         estimate D2E/DX2                !
 ! D13   D(1,3,6,8)            179.9129         estimate D2E/DX2                !
 ! D14   D(1,3,6,9)             -0.2307         estimate D2E/DX2                !
 ! D15   D(4,3,6,8)             -0.0226         estimate D2E/DX2                !
 ! D16   D(4,3,6,9)            179.8337         estimate D2E/DX2                !
 ! D17   D(2,5,9,6)             -0.1466         estimate D2E/DX2                !
 ! D18   D(2,5,9,14)          -179.7011         estimate D2E/DX2                !
 ! D19   D(7,5,9,6)            179.8087         estimate D2E/DX2                !
 ! D20   D(7,5,9,14)             0.2542         estimate D2E/DX2                !
 ! D21   D(3,6,9,5)              0.2807         estimate D2E/DX2                !
 ! D22   D(3,6,9,14)           179.8726         estimate D2E/DX2                !
 ! D23   D(8,6,9,5)           -179.8601         estimate D2E/DX2                !
 ! D24   D(8,6,9,14)            -0.2682         estimate D2E/DX2                !
 ! D25   D(5,9,14,15)           -3.4212         estimate D2E/DX2                !
 ! D26   D(6,9,14,15)          177.0101         estimate D2E/DX2                !
 ! D27   D(9,14,15,18)         179.747          estimate D2E/DX2                !
 ! D28   D(14,15,18,17)        178.8584         estimate D2E/DX2                !
 ! D29   D(14,15,18,19)         -1.1811         estimate D2E/DX2                !
 ! D30   D(21,16,17,18)         -0.06           estimate D2E/DX2                !
 ! D31   D(21,16,17,31)       -179.9683         estimate D2E/DX2                !
 ! D32   D(30,16,17,18)        179.9722         estimate D2E/DX2                !
 ! D33   D(30,16,17,31)          0.0639         estimate D2E/DX2                !
 ! D34   D(17,16,21,20)         -0.1474         estimate D2E/DX2                !
 ! D35   D(17,16,21,32)        179.9867         estimate D2E/DX2                !
 ! D36   D(30,16,21,20)        179.8203         estimate D2E/DX2                !
 ! D37   D(30,16,21,32)         -0.0456         estimate D2E/DX2                !
 ! D38   D(16,17,18,15)       -179.7907         estimate D2E/DX2                !
 ! D39   D(16,17,18,19)          0.2442         estimate D2E/DX2                !
 ! D40   D(31,17,18,15)          0.12           estimate D2E/DX2                !
 ! D41   D(31,17,18,19)       -179.8451         estimate D2E/DX2                !
 ! D42   D(15,18,19,20)        179.8242         estimate D2E/DX2                !
 ! D43   D(15,18,19,25)         -0.342          estimate D2E/DX2                !
 ! D44   D(17,18,19,20)         -0.2179         estimate D2E/DX2                !
 ! D45   D(17,18,19,25)        179.6159         estimate D2E/DX2                !
 ! D46   D(18,19,20,21)          0.0219         estimate D2E/DX2                !
 ! D47   D(18,19,20,22)        179.9503         estimate D2E/DX2                !
 ! D48   D(25,19,20,21)       -179.8241         estimate D2E/DX2                !
 ! D49   D(25,19,20,22)          0.1043         estimate D2E/DX2                !
 ! D50   D(18,19,25,24)       -179.8519         estimate D2E/DX2                !
 ! D51   D(18,19,25,29)          0.1814         estimate D2E/DX2                !
 ! D52   D(20,19,25,24)         -0.017          estimate D2E/DX2                !
 ! D53   D(20,19,25,29)       -179.9837         estimate D2E/DX2                !
 ! D54   D(19,20,21,16)          0.1633         estimate D2E/DX2                !
 ! D55   D(19,20,21,32)       -179.9632         estimate D2E/DX2                !
 ! D56   D(22,20,21,16)       -179.7654         estimate D2E/DX2                !
 ! D57   D(22,20,21,32)          0.1081         estimate D2E/DX2                !
 ! D58   D(19,20,22,23)         -0.0948         estimate D2E/DX2                !
 ! D59   D(19,20,22,26)        179.9523         estimate D2E/DX2                !
 ! D60   D(21,20,22,23)        179.8334         estimate D2E/DX2                !
 ! D61   D(21,20,22,26)         -0.1195         estimate D2E/DX2                !
 ! D62   D(16,21,32,33)         -0.6401         estimate D2E/DX2                !
 ! D63   D(20,21,32,33)        179.4882         estimate D2E/DX2                !
 ! D64   D(20,22,23,24)         -0.0049         estimate D2E/DX2                !
 ! D65   D(20,22,23,27)       -179.9709         estimate D2E/DX2                !
 ! D66   D(26,22,23,24)        179.9471         estimate D2E/DX2                !
 ! D67   D(26,22,23,27)         -0.0188         estimate D2E/DX2                !
 ! D68   D(22,23,24,25)          0.0943         estimate D2E/DX2                !
 ! D69   D(22,23,24,28)       -179.9144         estimate D2E/DX2                !
 ! D70   D(27,23,24,25)       -179.9398         estimate D2E/DX2                !
 ! D71   D(27,23,24,28)          0.0515         estimate D2E/DX2                !
 ! D72   D(23,24,25,19)         -0.0825         estimate D2E/DX2                !
 ! D73   D(23,24,25,29)        179.8836         estimate D2E/DX2                !
 ! D74   D(28,24,25,19)        179.9261         estimate D2E/DX2                !
 ! D75   D(28,24,25,29)         -0.1077         estimate D2E/DX2                !
 --------------------------------------------------------------------------------
 Trust Radius=3.00D-01 FncErr=1.00D-07 GrdErr=1.00D-06
 Number of steps in this run=    175 maximum allowed number of steps=    198.
 GradGradGradGradGradGradGradGradGradGradGradGradGradGradGradGradGradGrad

 Leave Link  103 at Sat Feb  5 13:59:56 2022, MaxMem=  6553600000 cpu:         0.2
 (Enter /home/madghost/g09/l202.exe)
                          Input orientation:                          
 ---------------------------------------------------------------------
 Center     Atomic      Atomic             Coordinates (Angstroms)
 Number     Number       Type             X           Y           Z
 ---------------------------------------------------------------------
      1          6           0       -4.290309   -0.802694   -0.088087
      2          6           0       -3.664207    0.469869   -0.006873
      3          6           0       -3.490238   -1.954415   -0.146857
      4          1           0       -3.967566   -2.926331   -0.208580
      5          6           0       -2.271173    0.566551    0.011973
      6          6           0       -2.103317   -1.849799   -0.124824
      7          1           0       -1.791083    1.535130    0.073980
      8          1           0       -1.480658   -2.737329   -0.168621
      9          6           0       -1.481252   -0.593995   -0.048520
     10          6           0       -4.445860    1.672320    0.058211
     11          7           0       -5.051069    2.664312    0.110871
     12          6           0       -5.716300   -0.930534   -0.109208
     13          7           0       -6.871730   -1.069054   -0.129400
     14          7           0       -0.063298   -0.603549   -0.029556
     15          7           0        0.457005    0.552113   -0.020607
     16          6           0        3.566970    2.433593   -0.002358
     17          6           0        2.228033    2.029061   -0.015849
     18          6           0        1.845938    0.685058    0.003566
     19          6           0        2.870793   -0.341310    0.044592
     20          6           0        4.246077    0.076928    0.058723
     21          6           0        4.563932    1.473454    0.032838
     22          6           0        5.285430   -0.886446    0.099625
     23          6           0        4.993191   -2.234959    0.128343
     24          6           0        3.648146   -2.655699    0.116929
     25          6           0        2.613004   -1.737416    0.075367
     26          1           0        6.313519   -0.543264    0.108675
     27          1           0        5.794840   -2.966726    0.160088
     28          1           0        3.415827   -3.716714    0.140896
     29          1           0        1.587852   -2.073426    0.065179
     30          1           0        3.819577    3.490675   -0.018841
     31          1           0        1.436499    2.770367   -0.043894
     32          8           0        5.884276    1.795051    0.047416
     33          1           0        5.995991    2.755014    0.019761
 ---------------------------------------------------------------------
                    Distance matrix (angstroms):
                    1          2          3          4          5
     1  C    0.000000
     2  C    1.420569   0.000000
     3  C    1.403577   2.434546   0.000000
     4  H    2.151399   3.415682   1.084561   0.000000
     5  C    2.441670   1.396512   2.804749   3.889295   0.000000
     6  C    2.425018   2.798419   1.391036   2.154382   2.426033
     7  H    3.426050   2.156365   3.887521   4.972077   1.082810
     8  H    3.412248   3.883319   2.156812   2.494400   3.401933
     9  C    2.817077   2.428751   2.428258   3.412795   1.405170
    10  C    2.484209   1.435655   3.756125   4.631148   2.440108
    11  N    3.555063   2.598621   4.882136   5.703623   3.483993
    12  C    1.431866   2.486501   2.450531   2.655400   3.758304
    13  N    2.595455   3.559705   3.495520   3.448176   4.884702
    14  N    4.232104   3.757564   3.685447   4.546501   2.499114
    15  N    4.937312   4.122055   4.677537   5.631317   2.728411
    16  C    8.498102   7.493074   8.311419   9.248813   6.129434
    17  C    7.107238   6.095051   6.970213   7.935900   4.731021
    18  C    6.314692   5.514355   5.955184   6.847187   4.118825
    19  C    7.177176   6.585354   6.565171   7.315025   5.221598
    20  C    8.582842   7.920309   8.001199   8.749568   6.535783
    21  C    9.142924   8.289212   8.755126   9.602231   6.895039
    22  C    9.577945   9.052455   8.843849   9.480193   7.695527
    23  C    9.395829   9.071103   8.492527   8.993702   7.786718
    24  C    8.154430   7.953302   7.177598   7.627468   6.740345
    25  C    6.968225   6.654491   6.111140   6.693134   5.400691
    26  H   10.608826  10.029696   9.908092  10.558426   8.656672
    27  H   10.317696  10.065368   9.345141   9.769448   8.807187
    28  H    8.241873   8.226554   7.133178   7.433797   7.120741
    29  H    6.015898   5.835895   5.083908   5.627172   4.675937
    30  H    9.176495   8.070467   9.115854  10.092253   6.756381
    31  H    6.750189   5.595611   6.826925   7.853879   4.313555
    32  O   10.501848   9.640155  10.098403  10.927752   8.247534
    33  H   10.884709   9.926833  10.592215  11.471804   8.551926
                    6          7          8          9         10
     6  C    0.000000
     7  H    3.405108   0.000000
     8  H    1.085049   4.290586   0.000000
     9  C    1.403507   2.155035   2.146696   0.000000
    10  C    4.233950   2.658366   5.318729   3.733159   0.000000
    11  N    5.396480   3.450206   6.481024   4.835862   1.163228
    12  C    3.728128   4.639007   4.605291   4.248832   2.901189
    13  N    4.831909   5.712802   5.643433   5.411975   3.665402
    14  N    2.392466   2.751347   2.565398   1.418113   4.939042
    15  N    3.512163   2.455437   3.820586   2.251929   5.029827
    16  C    7.107362   5.433396   7.228044   5.886677   8.049140
    17  C    5.815327   4.050349   6.041209   4.543158   6.683831
    18  C    4.694529   3.735706   4.775837   3.564952   6.369018
    19  C    5.200578   5.025433   4.972071   4.360369   7.588696
    20  C    6.637829   6.210788   6.384921   5.767490   8.837140
    21  C    7.451247   6.355447   7.369420   6.389461   9.012022
    22  C    7.454664   7.479420   7.019806   6.774619  10.062157
    23  C    7.111460   7.761630   6.500099   6.681501  10.216038
    24  C    5.812680   6.866593   5.137396   5.530707   9.178678
    25  C    4.721905   5.486852   4.221069   4.252728   7.839270
    26  H    8.520838   8.366929   8.101852   7.796521  10.985244
    27  H    7.981828   8.821584   7.286532   7.656036  11.242912
    28  H    5.832403   7.395827   5.003055   5.811079   9.531770
    29  H    3.702815   4.943577   3.148203   3.408965   7.101855
    30  H    7.975749   5.942413   8.179423   6.692100   8.463439
    31  H    5.820892   3.457888   6.233785   4.453339   5.984838
    32  O    8.781585   7.679805   8.650514   7.743885  10.330871
    33  H    9.317940   7.882232   9.279095   8.193271  10.497903
                   11         12         13         14         15
    11  N    0.000000
    12  C    3.662497   0.000000
    13  N    4.160596   1.163879   0.000000
    14  N    5.964603   5.663011   6.825058   0.000000
    15  N    5.900640   6.349471   7.506689   1.267419   0.000000
    16  C    8.621870   9.874607  11.011409   4.733267   3.634857
    17  C    7.307868   8.478228   9.613371   3.490132   2.306066
    18  C    7.176187   7.733712   8.893387   2.303646   1.395490
    19  C    8.473137   8.608659   9.771215   2.946720   2.574651
    20  C    9.650606  10.014596  11.178296   4.363663   3.819576
    21  C    9.688781  10.558528  11.716016   5.072385   4.209344
    22  C   10.929374  11.003800  12.160688   5.357762   5.039603
    23  C   11.175434  10.791254  11.924853   5.315497   5.326062
    24  C   10.197004   9.524714  10.641706   4.243536   4.526848
    25  C    8.838240   8.370330   9.510458   2.908480   3.146345
    26  H   11.808574  12.038023  13.197876   6.378600   5.959473
    27  H   12.220669  11.692944  12.811204   6.319680   6.395886
    28  H   10.602204   9.550973  10.626241   4.671741   5.196498
    29  H    8.156195   7.395083   8.521218   2.212648   2.860005
    30  H    8.909998  10.511337  11.623571   5.642650   4.465651
    31  H    6.490280   8.053786   9.152876   3.692277   2.424995
    32  O   10.970023  11.917496  13.074787   6.413489   5.568195
    33  H   11.047808  12.279155  13.424753   6.928013   5.961105
                   16         17         18         19         20
    16  C    0.000000
    17  C    1.398778   0.000000
    18  C    2.453439   1.397397   0.000000
    19  C    2.861285   2.456716   1.451014   0.000000
    20  C    2.453322   2.808716   2.476597   1.437543   0.000000
    21  C    1.384572   2.401561   2.830180   2.481980   1.432476
    22  C    3.739808   4.226250   3.782718   2.476020   1.417751
    23  C    4.883295   5.084167   4.295029   2.845610   2.430606
    24  C    5.091337   4.897073   3.797560   2.442521   2.797885
    25  C    4.279417   3.787198   2.542032   1.420040   2.441116
    26  H    4.051856   4.829447   4.634555   3.449240   2.159039
    27  H    5.844077   6.140925   5.380878   3.931437   3.416544
    28  H    6.153831   5.869357   4.675362   3.420481   3.884300
    29  H    4.922874   4.152926   2.771216   2.155594   3.419097
    30  H    1.086970   2.160865   3.430341   3.948205   3.441161
    31  H    2.157324   1.084826   2.125654   3.427472   3.893440
    32  O    2.404188   3.664270   4.188339   3.693931   2.373978
    33  H    2.450295   3.837419   4.637663   4.399398   3.199353
                   21         22         23         24         25
    21  C    0.000000
    22  C    2.468633   0.000000
    23  C    3.734396   1.380114   0.000000
    24  C    4.230324   2.410654   1.409361   0.000000
    25  C    3.757341   2.804746   2.432210   1.384374   0.000000
    26  H    2.670947   1.083892   2.146039   3.400980   3.888563
    27  H    4.609395   2.142596   1.085878   2.169538   3.412105
    28  H    5.316734   3.392276   2.164216   1.086416   2.136923
    29  H    4.630168   3.883580   3.409753   2.141619   1.078862
    30  H    2.150794   4.617569   5.846530   6.150263   5.366342
    31  H    3.386548   5.311040   6.142720   5.861692   4.660311
    32  O    1.359024   2.748048   4.128143   4.981394   4.814595
    33  H    1.921812   3.710998   5.090897   5.898952   5.624022
                   26         27         28         29         30
    26  H    0.000000
    27  H    2.478879   0.000000
    28  H    4.297493   2.494505   0.000000
    29  H    4.967415   4.301830   2.459191   0.000000
    30  H    4.744330   6.755125   7.220456   5.995571   0.000000
    31  H    5.898199   7.207703   6.784844   4.847384   2.489685
    32  O    2.378176   4.763949   6.039994   5.781409   2.672548
    33  H    3.314720   5.726994   6.968155   6.538164   2.297709
                   31         32         33
    31  H    0.000000
    32  O    4.554371   0.000000
    33  H    4.559962   0.966837   0.000000
 Stoichiometry    C18H10N4O
 Framework group  C1[X(C18H10N4O)]
 Deg. of freedom    93
 Full point group                 C1      NOp   1
 Largest Abelian subgroup         C1      NOp   1
 Largest concise Abelian subgroup C1      NOp   1
                         Standard orientation:                         
 ---------------------------------------------------------------------
 Center     Atomic      Atomic             Coordinates (Angstroms)
 Number     Number       Type             X           Y           Z
 ---------------------------------------------------------------------
      1          6           0       -4.556905   -0.629750   -0.029771
      2          6           0       -3.893849    0.624943    0.034393
      3          6           0       -3.790756   -1.804231   -0.090095
      4          1           0       -4.296305   -2.762522   -0.138807
      5          6           0       -2.498500    0.681927    0.035223
      6          6           0       -2.401252   -1.739120   -0.086061
      7          1           0       -1.990283    1.636805    0.084208
      8          1           0       -1.804717   -2.644353   -0.131132
      9          6           0       -1.742770   -0.501097   -0.026634
     10          6           0       -4.640065    1.849650    0.100433
     11          7           0       -5.216071    2.858863    0.153389
     12          6           0       -5.986111   -0.716954   -0.032239
     13          7           0       -7.145179   -0.822554   -0.037063
     14          7           0       -0.325536   -0.551013   -0.025223
     15          7           0        0.227531    0.589351   -0.031151
     16          6           0        3.389787    2.381322   -0.065243
     17          6           0        2.039812    2.015112   -0.059150
     18          6           0        1.619881    0.682737   -0.025208
     19          6           0        2.615534   -0.372175    0.010548
     20          6           0        4.002237    0.006701    0.004543
     21          6           0        4.359373    1.393367   -0.035452
     22          6           0        5.014174   -0.985658    0.039537
     23          6           0        4.684044   -2.325044    0.081697
     24          6           0        3.327529   -2.707265    0.090061
     25          6           0        2.318509   -1.760102    0.054683
     26          1           0        6.051649   -0.671925    0.033312
     27          1           0        5.464871   -3.079171    0.108802
     28          1           0        3.065416   -3.761021    0.124634
     29          1           0        1.284159   -2.066758    0.059681
     30          1           0        3.672161    3.430618   -0.092556
     31          1           0        1.269414    2.778511   -0.082751
     32          8           0        5.688417    1.677216   -0.039623
     33          1           0        5.827060    2.633382   -0.075650
 ---------------------------------------------------------------------
 Rotational constants (GHZ):      0.6816553      0.1069423      0.0924807
 Leave Link  202 at Sat Feb  5 13:59:56 2022, MaxMem=  6553600000 cpu:         0.8
 (Enter /home/madghost/g09/l301.exe)
 General basis read from cards:  (5D, 7F)
 Centers:       4      7      8     26     27     28     29     30     31     33
 S 3 1.00
     Exponent=  1.8731136960D+01 Coefficients=  3.3494604340D-02
     Exponent=  2.8253943650D+00 Coefficients=  2.3472695350D-01
     Exponent=  6.4012169230D-01 Coefficients=  8.1375732610D-01
 S 1 1.00
     Exponent=  1.6127775880D-01 Coefficients=  1.0000000000D+00
 S 1 1.00
     Exponent=  3.6000000000D-02 Coefficients=  1.0000000000D+00
 P 1 1.00
     Exponent=  1.1000000000D+00 Coefficients=  1.0000000000D+00
 ****
 Centers:       1      2      3      5      6      9     10     12     16     17
 Centers:      18     19     20     21     22     23     24     25
 S 6 1.00
     Exponent=  3.0475248800D+03 Coefficients=  1.8347371320D-03
     Exponent=  4.5736951800D+02 Coefficients=  1.4037322810D-02
     Exponent=  1.0394868500D+02 Coefficients=  6.8842622260D-02
     Exponent=  2.9210155300D+01 Coefficients=  2.3218444320D-01
     Exponent=  9.2866629600D+00 Coefficients=  4.6794134840D-01
     Exponent=  3.1639269600D+00 Coefficients=  3.6231198530D-01
 SP 3 1.00
     Exponent=  7.8682723500D+00 Coefficients= -1.1933241980D-01  6.8999066590D-02
     Exponent=  1.8812885400D+00 Coefficients= -1.6085415170D-01  3.1642396100D-01
     Exponent=  5.4424925800D-01 Coefficients=  1.1434564380D+00  7.4430829090D-01
 SP 1 1.00
     Exponent=  1.6871447820D-01 Coefficients=  1.0000000000D+00  1.0000000000D+00
 SP 1 1.00
     Exponent=  4.3800000000D-02 Coefficients=  1.0000000000D+00  1.0000000000D+00
 D 1 1.00
     Exponent=  8.0000000000D-01 Coefficients=  1.0000000000D+00
 ****
 Centers:      11     13     14     15
 S 6 1.00
     Exponent=  4.1735114600D+03 Coefficients=  1.8347721600D-03
     Exponent=  6.2745791100D+02 Coefficients=  1.3994627000D-02
     Exponent=  1.4290209300D+02 Coefficients=  6.8586551810D-02
     Exponent=  4.0234329300D+01 Coefficients=  2.3224087300D-01
     Exponent=  1.2820212900D+01 Coefficients=  4.6906994810D-01
     Exponent=  4.3904370100D+00 Coefficients=  3.6045519910D-01
 SP 3 1.00
     Exponent=  1.1626361860D+01 Coefficients= -1.1496118170D-01  6.7579743880D-02
     Exponent=  2.7162798070D+00 Coefficients= -1.6911747860D-01  3.2390729590D-01
     Exponent=  7.7221839660D-01 Coefficients=  1.1458519470D+00  7.4089513980D-01
 SP 1 1.00
     Exponent=  2.1203149750D-01 Coefficients=  1.0000000000D+00  1.0000000000D+00
 SP 1 1.00
     Exponent=  6.3900000000D-02 Coefficients=  1.0000000000D+00  1.0000000000D+00
 D 1 1.00
     Exponent=  8.0000000000D-01 Coefficients=  1.0000000000D+00
 ****
 Centers:      32
 S 6 1.00
     Exponent=  5.4846716600D+03 Coefficients=  1.8310744300D-03
     Exponent=  8.2523494600D+02 Coefficients=  1.3950172200D-02
     Exponent=  1.8804695800D+02 Coefficients=  6.8445078100D-02
     Exponent=  5.2964500000D+01 Coefficients=  2.3271433600D-01
     Exponent=  1.6897570400D+01 Coefficients=  4.7019289800D-01
     Exponent=  5.7996353400D+00 Coefficients=  3.5852085300D-01
 SP 3 1.00
     Exponent=  1.5539616250D+01 Coefficients= -1.1077754950D-01  7.0874268230D-02
     Exponent=  3.5999335860D+00 Coefficients= -1.4802626270D-01  3.3975283910D-01
     Exponent=  1.0137617500D+00 Coefficients=  1.1307670150D+00  7.2715857730D-01
 SP 1 1.00
     Exponent=  2.7000582260D-01 Coefficients=  1.0000000000D+00  1.0000000000D+00
 SP 1 1.00
     Exponent=  8.4500000000D-02 Coefficients=  1.0000000000D+00  1.0000000000D+00
 D 1 1.00
     Exponent=  8.0000000000D-01 Coefficients=  1.0000000000D+00
 ****
 Ernie: Thresh=  0.10000D-02 Tol=  0.10000D-05 Strict=F.
 There are   497 symmetry adapted cartesian basis functions of A   symmetry.
 There are   474 symmetry adapted basis functions of A   symmetry.
   474 basis functions,   816 primitive gaussians,   497 cartesian basis functions
    77 alpha electrons       77 beta electrons
       nuclear repulsion energy      1582.4391889270 Hartrees.
 IExCor=  402 DFT=T Ex+Corr=B3LYP ExCW=0 ScaHFX=  0.200000
 ScaDFX=  0.800000  0.720000  1.000000  0.810000 ScalE2=  1.000000  1.000000
 IRadAn=      5 IRanWt=     -1 IRanGd=            0 ICorTp=0 IEmpDi=  4
 NAtoms=   33 NActive=   33 NUniq=   33 SFac= 1.00D+00 NAtFMM=   60 NAOKFM=F Big=F
 Integral buffers will be    131072 words long.
 Raffenetti 2 integral format.
 Two-electron integral symmetry is turned on.
 Leave Link  301 at Sat Feb  5 13:59:57 2022, MaxMem=  6553600000 cpu:         1.6
 (Enter /home/madghost/g09/l302.exe)
 NPDir=0 NMtPBC=     1 NCelOv=     1 NCel=       1 NClECP=     1 NCelD=      1
         NCelK=      1 NCelE2=     1 NClLst=     1 CellRange=     0.0.
 One-electron integrals computed using PRISM.
 NBasis=   474 RedAO= T EigKep=  1.00D-06  NBF=   474
 NBsUse=   469 1.00D-06 EigRej=  7.28D-07 NBFU=   469
 Precomputing XC quadrature grid using
 IXCGrd= 4 IRadAn=           5 IRanWt=          -1 IRanGd=           0 AccXCQ= 0.00D+00.
 Generated NRdTot=       0 NPtTot=           0 NUsed=           0 NTot=          32
 NSgBfM=   487   487   487   487   487 MxSgAt=    33 MxSgA2=    33.
 Leave Link  302 at Sat Feb  5 13:59:58 2022, MaxMem=  6553600000 cpu:        21.5
 (Enter /home/madghost/g09/l303.exe)
 DipDrv:  MaxL=1.
 Leave Link  303 at Sat Feb  5 13:59:58 2022, MaxMem=  6553600000 cpu:         1.4
 (Enter /home/madghost/g09/l401.exe)
 ExpMin= 3.60D-02 ExpMax= 5.48D+03 ExpMxC= 8.25D+02 IAcc=3 IRadAn=         5 AccDes= 0.00D+00
 Harris functional with IExCor=  402 and IRadAn=       5 diagonalized for initial guess.
 HarFok:  IExCor=  402 AccDes= 0.00D+00 IRadAn=         5 IDoV= 1 UseB2=F ITyADJ=14
 ICtDFT=  3500011 ScaDFX=  1.000000  1.000000  1.000000  1.000000
 FoFCou: FMM=F IPFlag=           0 FMFlag=      100000 FMFlg1=           0
         NFxFlg=           0 DoJE=T BraDBF=F KetDBF=T FulRan=T
         wScrn=  0.000000 ICntrl=     500 IOpCl=  0 I1Cent=   200000004 NGrid=           0
         NMat0=    1 NMatS0=      1 NMatT0=    0 NMatD0=    1 NMtDS0=    0 NMtDT0=    0
 Petite list used in FoFCou.
 Harris En= -986.042218569714    
 JPrj=0 DoOrth=F DoCkMO=F.
 Leave Link  401 at Sat Feb  5 14:00:01 2022, MaxMem=  6553600000 cpu:        72.1
 (Enter /home/madghost/g09/l502.exe)
 Closed shell SCF:
 Using DIIS extrapolation, IDIIS=  1040.
 Integral symmetry usage will be decided dynamically.
 Keep R1 ints in memory in canonical form, NReq=6399149529.
 IVT=      775182 IEndB=      775182 NGot=  6553600000 MDV=   216203219
 LenX=   216203219 LenY=   215955713
 Requested convergence on RMS density matrix=1.00D-08 within 128 cycles.
 Requested convergence on MAX density matrix=1.00D-06.
 Requested convergence on             energy=1.00D-06.
 No special actions if energy rises.
 FoFCou: FMM=F IPFlag=           0 FMFlag=           0 FMFlg1=           0
         NFxFlg=           0 DoJE=F BraDBF=F KetDBF=F FulRan=T
         wScrn=  0.000000 ICntrl=     600 IOpCl=  0 I1Cent=           0 NGrid=           0
         NMat0=    1 NMatS0= 112575 NMatT0=    0 NMatD0=    1 NMtDS0=    0 NMtDT0=    0
 Symmetry not used in FoFCou.

 Cycle   1  Pass 1  IDiag  1:
 E= -985.770481862089    
 DIIS: error= 2.62D-02 at cycle   1 NSaved=   1.
 NSaved= 1 IEnMin= 1 EnMin= -985.770481862089     IErMin= 1 ErrMin= 2.62D-02
 ErrMax= 2.62D-02  0.00D+00 EMaxC= 1.00D-01 BMatC= 3.42D-01 BMatP= 3.42D-01
 IDIUse=3 WtCom= 7.38D-01 WtEn= 2.62D-01
 Coeff-Com:  0.100D+01
 Coeff-En:   0.100D+01
 Coeff:      0.100D+01
 Gap=     0.179 Goal=   None    Shift=    0.000
 GapD=    0.179 DampG=1.000 DampE=0.500 DampFc=0.5000 IDamp=-1.
 Damping current iteration by 5.00D-01
 RMSDP=3.18D-02 MaxDP=1.75D+00              OVMax= 3.08D-01

 Cycle   2  Pass 1  IDiag  1:
 E= -985.878434794264     Delta-E=       -0.107952932175 Rises=F Damp=T
 DIIS: error= 1.42D-02 at cycle   2 NSaved=   2.
 NSaved= 2 IEnMin= 2 EnMin= -985.878434794264     IErMin= 2 ErrMin= 1.42D-02
 ErrMax= 1.42D-02  0.00D+00 EMaxC= 1.00D-01 BMatC= 6.27D-02 BMatP= 3.42D-01
 IDIUse=3 WtCom= 8.58D-01 WtEn= 1.42D-01
 Coeff-Com:  0.201D+00 0.799D+00
 Coeff-En:   0.307D+00 0.693D+00
 Coeff:      0.216D+00 0.784D+00
 Gap=     0.133 Goal=   None    Shift=    0.000
 RMSDP=2.50D-02 MaxDP=2.14D+00 DE=-1.08D-01 OVMax= 2.66D-01

 Cycle   3  Pass 1  IDiag  1:
 E= -986.035827969309     Delta-E=       -0.157393175045 Rises=F Damp=F
 DIIS: error= 2.13D-02 at cycle   3 NSaved=   3.
 NSaved= 3 IEnMin= 3 EnMin= -986.035827969309     IErMin= 2 ErrMin= 1.42D-02
 ErrMax= 2.13D-02  0.00D+00 EMaxC= 1.00D-01 BMatC= 9.96D-02 BMatP= 6.27D-02
 IDIUse=2 WtCom= 0.00D+00 WtEn= 1.00D+00
 Coeff-En:   0.000D+00 0.102D+00 0.898D+00
 Coeff:      0.000D+00 0.102D+00 0.898D+00
 Gap=     0.170 Goal=   None    Shift=    0.000
 RMSDP=1.24D-02 MaxDP=9.64D-01 DE=-1.57D-01 OVMax= 2.74D-01

 Cycle   4  Pass 1  IDiag  1:
 E= -985.613171086074     Delta-E=        0.422656883235 Rises=F Damp=F
 DIIS: error= 4.43D-02 at cycle   4 NSaved=   4.
 NSaved= 4 IEnMin= 3 EnMin= -986.035827969309     IErMin= 2 ErrMin= 1.42D-02
 ErrMax= 4.43D-02  0.00D+00 EMaxC= 1.00D-01 BMatC= 5.31D-01 BMatP= 6.27D-02
 IDIUse=2 WtCom= 0.00D+00 WtEn= 1.00D+00
 Coeff-En:   0.000D+00 0.000D+00 0.770D+00 0.230D+00
 Coeff:      0.000D+00 0.000D+00 0.770D+00 0.230D+00
 Gap=     0.105 Goal=   None    Shift=    0.000
 RMSDP=6.17D-03 MaxDP=5.33D-01 DE= 4.23D-01 OVMax= 1.51D-01

 Cycle   5  Pass 1  IDiag  1:
 E= -986.098899121222     Delta-E=       -0.485728035148 Rises=F Damp=F
 DIIS: error= 1.25D-02 at cycle   5 NSaved=   5.
 NSaved= 5 IEnMin= 5 EnMin= -986.098899121222     IErMin= 5 ErrMin= 1.25D-02
 ErrMax= 1.25D-02  0.00D+00 EMaxC= 1.00D-01 BMatC= 3.77D-02 BMatP= 6.27D-02
 IDIUse=3 WtCom= 8.75D-01 WtEn= 1.25D-01
 Coeff-Com:  0.102D-01-0.192D-03 0.341D+00-0.329D-01 0.682D+00
 Coeff-En:   0.000D+00 0.000D+00 0.327D+00 0.000D+00 0.673D+00
 Coeff:      0.896D-02-0.168D-03 0.339D+00-0.288D-01 0.681D+00
 Gap=     0.114 Goal=   None    Shift=    0.000
 RMSDP=2.37D-03 MaxDP=1.51D-01 DE=-4.86D-01 OVMax= 5.45D-02

 Cycle   6  Pass 1  IDiag  1:
 E= -986.135288845302     Delta-E=       -0.036389724080 Rises=F Damp=F
 DIIS: error= 1.11D-03 at cycle   6 NSaved=   6.
 NSaved= 6 IEnMin= 6 EnMin= -986.135288845302     IErMin= 6 ErrMin= 1.11D-03
 ErrMax= 1.11D-03  0.00D+00 EMaxC= 1.00D-01 BMatC= 3.30D-04 BMatP= 3.77D-02
 IDIUse=3 WtCom= 9.89D-01 WtEn= 1.11D-02
 Coeff-Com: -0.514D-03 0.130D-02 0.148D+00-0.463D-01 0.422D+00 0.476D+00
 Coeff-En:   0.000D+00 0.000D+00 0.000D+00 0.000D+00 0.000D+00 0.100D+01
 Coeff:     -0.508D-03 0.129D-02 0.146D+00-0.458D-01 0.417D+00 0.482D+00
 Gap=     0.114 Goal=   None    Shift=    0.000
 RMSDP=5.69D-04 MaxDP=5.07D-02 DE=-3.64D-02 OVMax= 8.42D-03

 Cycle   7  Pass 1  IDiag  1:
 E= -986.135646444464     Delta-E=       -0.000357599162 Rises=F Damp=F
 DIIS: error= 3.19D-04 at cycle   7 NSaved=   7.
 NSaved= 7 IEnMin= 7 EnMin= -986.135646444464     IErMin= 7 ErrMin= 3.19D-04
 ErrMax= 3.19D-04  0.00D+00 EMaxC= 1.00D-01 BMatC= 4.19D-05 BMatP= 3.30D-04
 IDIUse=3 WtCom= 9.97D-01 WtEn= 3.19D-03
 Coeff-Com: -0.105D-02 0.194D-02 0.668D-01-0.286D-01 0.213D+00 0.307D+00
 Coeff-Com:  0.441D+00
 Coeff-En:   0.000D+00 0.000D+00 0.000D+00 0.000D+00 0.000D+00 0.498D-01
 Coeff-En:   0.950D+00
 Coeff:     -0.105D-02 0.193D-02 0.666D-01-0.285D-01 0.212D+00 0.306D+00
 Coeff:      0.443D+00
 Gap=     0.114 Goal=   None    Shift=    0.000
 RMSDP=1.17D-04 MaxDP=9.68D-03 DE=-3.58D-04 OVMax= 1.82D-03

 Cycle   8  Pass 1  IDiag  1:
 E= -986.135684870133     Delta-E=       -0.000038425669 Rises=F Damp=F
 DIIS: error= 1.03D-04 at cycle   8 NSaved=   8.
 NSaved= 8 IEnMin= 8 EnMin= -986.135684870133     IErMin= 8 ErrMin= 1.03D-04
 ErrMax= 1.03D-04  0.00D+00 EMaxC= 1.00D-01 BMatC= 4.61D-06 BMatP= 4.19D-05
 IDIUse=3 WtCom= 9.99D-01 WtEn= 1.03D-03
 Coeff-Com: -0.362D-03 0.802D-03 0.184D-01-0.100D-01 0.612D-01 0.109D+00
 Coeff-Com:  0.258D+00 0.563D+00
 Coeff-En:   0.000D+00 0.000D+00 0.000D+00 0.000D+00 0.000D+00 0.000D+00
 Coeff-En:   0.000D+00 0.100D+01
 Coeff:     -0.362D-03 0.801D-03 0.184D-01-0.100D-01 0.611D-01 0.109D+00
 Coeff:      0.258D+00 0.563D+00
 Gap=     0.114 Goal=   None    Shift=    0.000
 RMSDP=4.42D-05 MaxDP=2.86D-03 DE=-3.84D-05 OVMax= 1.10D-03

 Cycle   9  Pass 1  IDiag  1:
 E= -986.135688553132     Delta-E=       -0.000003682999 Rises=F Damp=F
 DIIS: error= 4.37D-05 at cycle   9 NSaved=   9.
 NSaved= 9 IEnMin= 9 EnMin= -986.135688553132     IErMin= 9 ErrMin= 4.37D-05
 ErrMax= 4.37D-05  0.00D+00 EMaxC= 1.00D-01 BMatC= 9.53D-07 BMatP= 4.61D-06
 IDIUse=1 WtCom= 1.00D+00 WtEn= 0.00D+00
 Coeff-Com: -0.176D-05-0.737D-04 0.319D-02-0.246D-02 0.101D-01 0.278D-01
 Coeff-Com:  0.103D+00 0.382D+00 0.476D+00
 Coeff:     -0.176D-05-0.737D-04 0.319D-02-0.246D-02 0.101D-01 0.278D-01
 Coeff:      0.103D+00 0.382D+00 0.476D+00
 Gap=     0.114 Goal=   None    Shift=    0.000
 RMSDP=1.65D-05 MaxDP=1.41D-03 DE=-3.68D-06 OVMax= 2.59D-04

 Cycle  10  Pass 1  IDiag  1:
 E= -986.135689401976     Delta-E=       -0.000000848844 Rises=F Damp=F
 DIIS: error= 1.30D-05 at cycle  10 NSaved=  10.
 NSaved=10 IEnMin=10 EnMin= -986.135689401976     IErMin=10 ErrMin= 1.30D-05
 ErrMax= 1.30D-05  0.00D+00 EMaxC= 1.00D-01 BMatC= 7.75D-08 BMatP= 9.53D-07
 IDIUse=1 WtCom= 1.00D+00 WtEn= 0.00D+00
 Coeff-Com:  0.614D-04-0.199D-03-0.310D-03-0.162D-03-0.169D-02 0.296D-02
 Coeff-Com:  0.273D-01 0.155D+00 0.285D+00 0.532D+00
 Coeff:      0.614D-04-0.199D-03-0.310D-03-0.162D-03-0.169D-02 0.296D-02
 Coeff:      0.273D-01 0.155D+00 0.285D+00 0.532D+00
 Gap=     0.114 Goal=   None    Shift=    0.000
 RMSDP=6.36D-06 MaxDP=3.34D-04 DE=-8.49D-07 OVMax= 1.94D-04

 Cycle  11  Pass 1  IDiag  1:
 E= -986.135689482725     Delta-E=       -0.000000080749 Rises=F Damp=F
 DIIS: error= 7.15D-06 at cycle  11 NSaved=  11.
 NSaved=11 IEnMin=11 EnMin= -986.135689482725     IErMin=11 ErrMin= 7.15D-06
 ErrMax= 7.15D-06  0.00D+00 EMaxC= 1.00D-01 BMatC= 1.02D-08 BMatP= 7.75D-08
 IDIUse=1 WtCom= 1.00D+00 WtEn= 0.00D+00
 Coeff-Com:  0.286D-04-0.888D-04-0.669D-03 0.204D-03-0.239D-02-0.159D-02
 Coeff-Com:  0.361D-02 0.484D-01 0.112D+00 0.326D+00 0.514D+00
 Coeff:      0.286D-04-0.888D-04-0.669D-03 0.204D-03-0.239D-02-0.159D-02
 Coeff:      0.361D-02 0.484D-01 0.112D+00 0.326D+00 0.514D+00
 Gap=     0.114 Goal=   None    Shift=    0.000
 RMSDP=2.27D-06 MaxDP=1.20D-04 DE=-8.07D-08 OVMax= 6.18D-05

 Cycle  12  Pass 1  IDiag  1:
 E= -986.135689493007     Delta-E=       -0.000000010282 Rises=F Damp=F
 DIIS: error= 2.49D-06 at cycle  12 NSaved=  12.
 NSaved=12 IEnMin=12 EnMin= -986.135689493007     IErMin=12 ErrMin= 2.49D-06
 ErrMax= 2.49D-06  0.00D+00 EMaxC= 1.00D-01 BMatC= 2.34D-09 BMatP= 1.02D-08
 IDIUse=1 WtCom= 1.00D+00 WtEn= 0.00D+00
 Coeff-Com:  0.384D-05-0.866D-05-0.398D-03 0.156D-03-0.125D-02-0.137D-02
 Coeff-Com: -0.202D-02 0.640D-02 0.250D-01 0.129D+00 0.345D+00 0.499D+00
 Coeff:      0.384D-05-0.866D-05-0.398D-03 0.156D-03-0.125D-02-0.137D-02
 Coeff:     -0.202D-02 0.640D-02 0.250D-01 0.129D+00 0.345D+00 0.499D+00
 Gap=     0.114 Goal=   None    Shift=    0.000
 RMSDP=9.85D-07 MaxDP=6.87D-05 DE=-1.03D-08 OVMax= 2.20D-05

 Cycle  13  Pass 1  IDiag  1:
 E= -986.135689495291     Delta-E=       -0.000000002283 Rises=F Damp=F
 DIIS: error= 8.40D-07 at cycle  13 NSaved=  13.
 NSaved=13 IEnMin=13 EnMin= -986.135689495291     IErMin=13 ErrMin= 8.40D-07
 ErrMax= 8.40D-07  0.00D+00 EMaxC= 1.00D-01 BMatC= 2.69D-10 BMatP= 2.34D-09
 IDIUse=1 WtCom= 1.00D+00 WtEn= 0.00D+00
 Coeff-Com: -0.330D-05 0.755D-05-0.189D-03 0.803D-04-0.524D-03-0.697D-03
 Coeff-Com: -0.189D-02-0.277D-02-0.192D-03 0.361D-01 0.142D+00 0.297D+00
 Coeff-Com:  0.531D+00
 Coeff:     -0.330D-05 0.755D-05-0.189D-03 0.803D-04-0.524D-03-0.697D-03
 Coeff:     -0.189D-02-0.277D-02-0.192D-03 0.361D-01 0.142D+00 0.297D+00
 Coeff:      0.531D+00
 Gap=     0.114 Goal=   None    Shift=    0.000
 RMSDP=3.10D-07 MaxDP=2.04D-05 DE=-2.28D-09 OVMax= 5.97D-06

 Cycle  14  Pass 1  IDiag  1:
 E= -986.135689495507     Delta-E=       -0.000000000216 Rises=F Damp=F
 DIIS: error= 2.43D-07 at cycle  14 NSaved=  14.
 NSaved=14 IEnMin=14 EnMin= -986.135689495507     IErMin=14 ErrMin= 2.43D-07
 ErrMax= 2.43D-07  0.00D+00 EMaxC= 1.00D-01 BMatC= 3.20D-11 BMatP= 2.69D-10
 IDIUse=1 WtCom= 1.00D+00 WtEn= 0.00D+00
 Coeff-Com: -0.351D-05 0.575D-05-0.193D-04 0.801D-05-0.103D-04-0.185D-04
 Coeff-Com: -0.330D-03-0.176D-02-0.386D-02-0.411D-02 0.718D-02 0.577D-01
 Coeff-Com:  0.243D+00 0.702D+00
 Coeff:     -0.351D-05 0.575D-05-0.193D-04 0.801D-05-0.103D-04-0.185D-04
 Coeff:     -0.330D-03-0.176D-02-0.386D-02-0.411D-02 0.718D-02 0.577D-01
 Coeff:      0.243D+00 0.702D+00
 Gap=     0.114 Goal=   None    Shift=    0.000
 RMSDP=1.33D-07 MaxDP=1.02D-05 DE=-2.16D-10 OVMax= 1.63D-06

 Cycle  15  Pass 1  IDiag  1:
 E= -986.135689495570     Delta-E=       -0.000000000063 Rises=F Damp=F
 DIIS: error= 9.63D-08 at cycle  15 NSaved=  15.
 NSaved=15 IEnMin=15 EnMin= -986.135689495570     IErMin=15 ErrMin= 9.63D-08
 ErrMax= 9.63D-08  0.00D+00 EMaxC= 1.00D-01 BMatC= 4.57D-12 BMatP= 3.20D-11
 IDIUse=1 WtCom= 1.00D+00 WtEn= 0.00D+00
 Coeff-Com: -0.211D-05 0.347D-05 0.581D-06-0.774D-06 0.306D-04 0.344D-04
 Coeff-Com: -0.765D-04-0.957D-03-0.260D-02-0.583D-02-0.816D-02 0.128D-01
 Coeff-Com:  0.110D+00 0.460D+00 0.434D+00
 Coeff:     -0.211D-05 0.347D-05 0.581D-06-0.774D-06 0.306D-04 0.344D-04
 Coeff:     -0.765D-04-0.957D-03-0.260D-02-0.583D-02-0.816D-02 0.128D-01
 Coeff:      0.110D+00 0.460D+00 0.434D+00
 Gap=     0.114 Goal=   None    Shift=    0.000
 RMSDP=4.54D-08 MaxDP=4.89D-06 DE=-6.32D-11 OVMax= 5.63D-07

 Cycle  16  Pass 1  IDiag  1:
 E= -986.135689495534     Delta-E=        0.000000000036 Rises=F Damp=F
 DIIS: error= 3.19D-08 at cycle  16 NSaved=  16.
 NSaved=16 IEnMin=15 EnMin= -986.135689495570     IErMin=16 ErrMin= 3.19D-08
 ErrMax= 3.19D-08  0.00D+00 EMaxC= 1.00D-01 BMatC= 4.00D-13 BMatP= 4.57D-12
 IDIUse=1 WtCom= 1.00D+00 WtEn= 0.00D+00
 Coeff-Com: -0.970D-06 0.174D-05 0.129D-05-0.917D-06 0.169D-04 0.165D-04
 Coeff-Com: -0.287D-04-0.439D-03-0.126D-02-0.314D-02-0.589D-02 0.275D-02
 Coeff-Com:  0.433D-01 0.217D+00 0.272D+00 0.476D+00
 Coeff:     -0.970D-06 0.174D-05 0.129D-05-0.917D-06 0.169D-04 0.165D-04
 Coeff:     -0.287D-04-0.439D-03-0.126D-02-0.314D-02-0.589D-02 0.275D-02
 Coeff:      0.433D-01 0.217D+00 0.272D+00 0.476D+00
 Gap=     0.114 Goal=   None    Shift=    0.000
 RMSDP=1.64D-08 MaxDP=1.16D-06 DE= 3.59D-11 OVMax= 1.71D-07

 Cycle  17  Pass 1  IDiag  1:
 E= -986.135689495571     Delta-E=       -0.000000000036 Rises=F Damp=F
 DIIS: error= 9.45D-09 at cycle  17 NSaved=  17.
 NSaved=17 IEnMin=17 EnMin= -986.135689495571     IErMin=17 ErrMin= 9.45D-09
 ErrMax= 9.45D-09  0.00D+00 EMaxC= 1.00D-01 BMatC= 7.63D-14 BMatP= 4.00D-13
 IDIUse=1 WtCom= 1.00D+00 WtEn= 0.00D+00
 Coeff-Com: -0.258D-06 0.567D-06 0.907D-06-0.556D-06 0.588D-05 0.521D-05
 Coeff-Com: -0.358D-05-0.999D-04-0.340D-03-0.928D-03-0.235D-02-0.719D-04
 Coeff-Com:  0.881D-02 0.615D-01 0.102D+00 0.321D+00 0.511D+00
 Coeff:     -0.258D-06 0.567D-06 0.907D-06-0.556D-06 0.588D-05 0.521D-05
 Coeff:     -0.358D-05-0.999D-04-0.340D-03-0.928D-03-0.235D-02-0.719D-04
 Coeff:      0.881D-02 0.615D-01 0.102D+00 0.321D+00 0.511D+00
 Gap=     0.114 Goal=   None    Shift=    0.000
 RMSDP=1.47D-08 MaxDP=1.76D-06 DE=-3.64D-11 OVMax= 6.11D-08

 Cycle  18  Pass 1  IDiag  1:
 E= -986.135689495550     Delta-E=        0.000000000021 Rises=F Damp=F
 DIIS: error= 3.92D-09 at cycle  18 NSaved=  18.
 NSaved=18 IEnMin=17 EnMin= -986.135689495571     IErMin=18 ErrMin= 3.92D-09
 ErrMax= 3.92D-09  0.00D+00 EMaxC= 1.00D-01 BMatC= 4.64D-15 BMatP= 7.63D-14
 IDIUse=1 WtCom= 1.00D+00 WtEn= 0.00D+00
 Coeff-Com: -0.479D-07 0.133D-06 0.419D-06-0.210D-06 0.168D-05 0.128D-05
 Coeff-Com:  0.296D-06-0.130D-04-0.718D-04-0.210D-03-0.707D-03-0.898D-04
 Coeff-Com:  0.115D-02 0.144D-01 0.285D-01 0.116D+00 0.254D+00 0.587D+00
 Coeff:     -0.479D-07 0.133D-06 0.419D-06-0.210D-06 0.168D-05 0.128D-05
 Coeff:      0.296D-06-0.130D-04-0.718D-04-0.210D-03-0.707D-03-0.898D-04
 Coeff:      0.115D-02 0.144D-01 0.285D-01 0.116D+00 0.254D+00 0.587D+00
 Gap=     0.114 Goal=   None    Shift=    0.000
 RMSDP=2.19D-08 MaxDP=2.63D-06 DE= 2.09D-11 OVMax= 2.60D-08

 Cycle  19  Pass 1  IDiag  1:
 E= -986.135689495563     Delta-E=       -0.000000000013 Rises=F Damp=F
 DIIS: error= 1.13D-09 at cycle  19 NSaved=  19.
 NSaved=19 IEnMin=17 EnMin= -986.135689495571     IErMin=19 ErrMin= 1.13D-09
 ErrMax= 1.13D-09  0.00D+00 EMaxC= 1.00D-01 BMatC= 9.62D-16 BMatP= 4.64D-15
 IDIUse=1 WtCom= 1.00D+00 WtEn= 0.00D+00
 Large coefficients: NSaved= 19 BigCof=    0.00 CofMax=   10.00 Det=-5.27D-15
 Inversion failed.  Reducing to 18 matrices.
 Large coefficients: NSaved= 18 BigCof=    0.00 CofMax=   10.00 Det=-5.27D-15
 Inversion failed.  Reducing to 17 matrices.
 Large coefficients: NSaved= 17 BigCof=    0.00 CofMax=   10.00 Det=-5.41D-15
 Inversion failed.  Reducing to 16 matrices.
 Large coefficients: NSaved= 16 BigCof=    0.00 CofMax=   10.00 Det=-5.41D-15
 Inversion failed.  Reducing to 15 matrices.
 Coeff-Com: -0.866D-07-0.385D-06-0.782D-06 0.163D-05-0.476D-05 0.173D-05
 Coeff-Com: -0.566D-04 0.162D-03 0.262D-05 0.142D-02 0.330D-02 0.202D-01
 Coeff-Com:  0.740D-01 0.357D+00 0.544D+00
 Coeff:     -0.866D-07-0.385D-06-0.782D-06 0.163D-05-0.476D-05 0.173D-05
 Coeff:     -0.566D-04 0.162D-03 0.262D-05 0.142D-02 0.330D-02 0.202D-01
 Coeff:      0.740D-01 0.357D+00 0.544D+00
 Gap=     0.114 Goal=   None    Shift=    0.000
 RMSDP=1.96D-08 MaxDP=2.41D-06 DE=-1.27D-11 OVMax= 1.07D-08

 Cycle  20  Pass 1  IDiag  1:
 E= -986.135689495519     Delta-E=        0.000000000044 Rises=F Damp=F
 DIIS: error= 3.68D-10 at cycle  20 NSaved=  16.
 NSaved=16 IEnMin=13 EnMin= -986.135689495571     IErMin=16 ErrMin= 3.68D-10
 ErrMax= 3.68D-10  0.00D+00 EMaxC= 1.00D-01 BMatC= 5.18D-17 BMatP= 9.62D-16
 IDIUse=1 WtCom= 1.00D+00 WtEn= 0.00D+00
 Large coefficients: NSaved= 16 BigCof=    0.00 CofMax=   10.00 Det=-5.53D-16
 Inversion failed.  Reducing to 15 matrices.
 Coeff-Com: -0.959D-07-0.439D-06-0.975D-06-0.388D-05-0.345D-05-0.843D-05
 Coeff-Com:  0.663D-04 0.113D-04 0.180D-04-0.180D-03-0.106D-02 0.735D-02
 Coeff-Com:  0.793D-01 0.217D+00 0.697D+00
 Coeff:     -0.959D-07-0.439D-06-0.975D-06-0.388D-05-0.345D-05-0.843D-05
 Coeff:      0.663D-04 0.113D-04 0.180D-04-0.180D-03-0.106D-02 0.735D-02
 Coeff:      0.793D-01 0.217D+00 0.697D+00
 Gap=     0.114 Goal=   None    Shift=    0.000
 RMSDP=1.67D-08 MaxDP=1.23D-06 DE= 4.37D-11 OVMax= 4.55D-09

 Cycle  21  Pass 1  IDiag  1:
 E= -986.135689495491     Delta-E=        0.000000000028 Rises=F Damp=F
 DIIS: error= 1.85D-10 at cycle  21 NSaved=  16.
 NSaved=16 IEnMin=12 EnMin= -986.135689495571     IErMin=16 ErrMin= 1.85D-10
 ErrMax= 1.85D-10  0.00D+00 EMaxC= 1.00D-01 BMatC= 2.15D-17 BMatP= 5.18D-17
 IDIUse=1 WtCom= 1.00D+00 WtEn= 0.00D+00
 Large coefficients: NSaved= 16 BigCof=    0.00 CofMax=   10.00 Det=-9.21D-17
 Inversion failed.  Reducing to 15 matrices.
 Coeff-Com: -0.337D-07-0.187D-07 0.108D-07 0.140D-05 0.933D-05 0.196D-04
 Coeff-Com: -0.252D-04-0.362D-03-0.687D-03-0.392D-02-0.761D-02-0.139D-01
 Coeff-Com:  0.390D-01 0.437D+00 0.551D+00
 Coeff:     -0.337D-07-0.187D-07 0.108D-07 0.140D-05 0.933D-05 0.196D-04
 Coeff:     -0.252D-04-0.362D-03-0.687D-03-0.392D-02-0.761D-02-0.139D-01
 Coeff:      0.390D-01 0.437D+00 0.551D+00
 Gap=     0.114 Goal=   None    Shift=    0.000
 RMSDP=9.40D-09 MaxDP=6.96D-07 DE= 2.82D-11 OVMax= 2.25D-09

 SCF Done:  E(RB3LYP) =  -986.135689495     A.U. after   21 cycles
            NFock= 21  Conv=0.94D-08     -V/T= 2.0070
 KE= 9.792590846667D+02 PE=-5.455115762309D+03 EE= 1.907281799220D+03
 Leave Link  502 at Sat Feb  5 14:07:07 2022, MaxMem=  6553600000 cpu:      2979.4
 (Enter /home/madghost/g09/l601.exe)
 Copying SCF densities to generalized density rwf, IOpCl= 0 IROHF=0.

 **********************************************************************

            Population analysis using the SCF density.

 **********************************************************************

 Orbital symmetries:
       Occupied  (A) (A) (A) (A) (A) (A) (A) (A) (A) (A) (A) (A)
                 (A) (A) (A) (A) (A) (A) (A) (A) (A) (A) (A) (A)
                 (A) (A) (A) (A) (A) (A) (A) (A) (A) (A) (A) (A)
                 (A) (A) (A) (A) (A) (A) (A) (A) (A) (A) (A) (A)
                 (A) (A) (A) (A) (A) (A) (A) (A) (A) (A) (A) (A)
                 (A) (A) (A) (A) (A) (A) (A) (A) (A) (A) (A) (A)
                 (A) (A) (A) (A) (A)
       Virtual   (A) (A) (A) (A) (A) (A) (A) (A) (A) (A) (A) (A)
                 (A) (A) (A) (A) (A) (A) (A) (A) (A) (A) (A) (A)
                 (A) (A) (A) (A) (A) (A) (A) (A) (A) (A) (A) (A)
                 (A) (A) (A) (A) (A) (A) (A) (A) (A) (A) (A) (A)
                 (A) (A) (A) (A) (A) (A) (A) (A) (A) (A) (A) (A)
                 (A) (A) (A) (A) (A) (A) (A) (A) (A) (A) (A) (A)
                 (A) (A) (A) (A) (A) (A) (A) (A) (A) (A) (A) (A)
                 (A) (A) (A) (A) (A) (A) (A) (A) (A) (A) (A) (A)
                 (A) (A) (A) (A) (A) (A) (A) (A) (A) (A) (A) (A)
                 (A) (A) (A) (A) (A) (A) (A) (A) (A) (A) (A) (A)
                 (A) (A) (A) (A) (A) (A) (A) (A) (A) (A) (A) (A)
                 (A) (A) (A) (A) (A) (A) (A) (A) (A) (A) (A) (A)
                 (A) (A) (A) (A) (A) (A) (A) (A) (A) (A) (A) (A)
                 (A) (A) (A) (A) (A) (A) (A) (A) (A) (A) (A) (A)
                 (A) (A) (A) (A) (A) (A) (A) (A) (A) (A) (A) (A)
                 (A) (A) (A) (A) (A) (A) (A) (A) (A) (A) (A) (A)
                 (A) (A) (A) (A) (A) (A) (A) (A) (A) (A) (A) (A)
                 (A) (A) (A) (A) (A) (A) (A) (A) (A) (A) (A) (A)
                 (A) (A) (A) (A) (A) (A) (A) (A) (A) (A) (A) (A)
                 (A) (A) (A) (A) (A) (A) (A) (A) (A) (A) (A) (A)
                 (A) (A) (A) (A) (A) (A) (A) (A) (A) (A) (A) (A)
                 (A) (A) (A) (A) (A) (A) (A) (A) (A) (A) (A) (A)
                 (A) (A) (A) (A) (A) (A) (A) (A) (A) (A) (A) (A)
                 (A) (A) (A) (A) (A) (A) (A) (A) (A) (A) (A) (A)
                 (A) (A) (A) (A) (A) (A) (A) (A) (A) (A) (A) (A)
                 (A) (A) (A) (A) (A) (A) (A) (A) (A) (A) (A) (A)
                 (A) (A) (A) (A) (A) (A) (A) (A) (A) (A) (A) (A)
                 (A) (A) (A) (A) (A) (A) (A) (A) (A) (A) (A) (A)
                 (A) (A) (A) (A) (A) (A) (A) (A) (A) (A) (A) (A)
                 (A) (A) (A) (A) (A) (A) (A) (A) (A) (A) (A) (A)
                 (A) (A) (A) (A) (A) (A) (A) (A) (A) (A) (A) (A)
                 (A) (A) (A) (A) (A) (A) (A) (A) (A) (A) (A) (A)
                 (A) (A) (A) (A) (A) (A) (A) (A)
 The electronic state is 1-A.
 Alpha  occ. eigenvalues --  -19.22761 -14.40627 -14.39743 -14.35845 -14.35821
 Alpha  occ. eigenvalues --  -10.29726 -10.26985 -10.26785 -10.25901 -10.24580
 Alpha  occ. eigenvalues --  -10.24577 -10.24569 -10.24058 -10.23601 -10.23295
 Alpha  occ. eigenvalues --  -10.23261 -10.22942 -10.22878 -10.22256 -10.21516
 Alpha  occ. eigenvalues --  -10.21457 -10.21328 -10.20648  -1.11144  -1.05380
 Alpha  occ. eigenvalues --   -0.93610  -0.92099  -0.90992  -0.89885  -0.86075
 Alpha  occ. eigenvalues --   -0.83691  -0.80969  -0.79697  -0.77627  -0.76693
 Alpha  occ. eigenvalues --   -0.71955  -0.68639  -0.67583  -0.65153  -0.64242
 Alpha  occ. eigenvalues --   -0.61802  -0.60135  -0.57434  -0.56325  -0.53726
 Alpha  occ. eigenvalues --   -0.53277  -0.52623  -0.50897  -0.48403  -0.47774
 Alpha  occ. eigenvalues --   -0.47133  -0.46394  -0.45680  -0.45241  -0.44641
 Alpha  occ. eigenvalues --   -0.44161  -0.43278  -0.43171  -0.41056  -0.41020
 Alpha  occ. eigenvalues --   -0.40059  -0.39362  -0.37878  -0.37673  -0.37538
 Alpha  occ. eigenvalues --   -0.37191  -0.36702  -0.36610  -0.35211  -0.34878
 Alpha  occ. eigenvalues --   -0.34281  -0.30145  -0.29352  -0.28101  -0.27856
 Alpha  occ. eigenvalues --   -0.25239  -0.23491
 Alpha virt. eigenvalues --   -0.12090  -0.08150  -0.06403  -0.04640  -0.03263
 Alpha virt. eigenvalues --   -0.03187  -0.01444  -0.00730  -0.00197   0.00224
 Alpha virt. eigenvalues --    0.00811   0.01605   0.01674   0.02060   0.02099
 Alpha virt. eigenvalues --    0.03002   0.03214   0.03646   0.04110   0.04534
 Alpha virt. eigenvalues --    0.04886   0.05010   0.05438   0.06021   0.06471
 Alpha virt. eigenvalues --    0.06687   0.06953   0.07186   0.07314   0.07527
 Alpha virt. eigenvalues --    0.07652   0.08019   0.08359   0.08951   0.09646
 Alpha virt. eigenvalues --    0.09725   0.10372   0.10667   0.10800   0.10908
 Alpha virt. eigenvalues --    0.11037   0.11523   0.11558   0.12076   0.12512
 Alpha virt. eigenvalues --    0.12706   0.12936   0.13067   0.13615   0.13771
 Alpha virt. eigenvalues --    0.13797   0.14074   0.14642   0.14892   0.15223
 Alpha virt. eigenvalues --    0.15308   0.15624   0.16417   0.16688   0.16893
 Alpha virt. eigenvalues --    0.17079   0.17547   0.17698   0.17858   0.18383
 Alpha virt. eigenvalues --    0.18811   0.19320   0.19615   0.20043   0.20469
 Alpha virt. eigenvalues --    0.20605   0.20790   0.21203   0.21631   0.21970
 Alpha virt. eigenvalues --    0.22086   0.22486   0.22632   0.23034   0.23240
 Alpha virt. eigenvalues --    0.23682   0.23930   0.24544   0.24570   0.24890
 Alpha virt. eigenvalues --    0.25185   0.25703   0.25958   0.26056   0.26226
 Alpha virt. eigenvalues --    0.26510   0.26779   0.26972   0.27201   0.27700
 Alpha virt. eigenvalues --    0.27756   0.27871   0.28019   0.28402   0.28441
 Alpha virt. eigenvalues --    0.28571   0.29432   0.29529   0.29965   0.30237
 Alpha virt. eigenvalues --    0.30331   0.30675   0.31248   0.31529   0.31938
 Alpha virt. eigenvalues --    0.32512   0.32846   0.33395   0.33741   0.34237
 Alpha virt. eigenvalues --    0.34599   0.34972   0.35625   0.35941   0.36578
 Alpha virt. eigenvalues --    0.36922   0.37186   0.37676   0.38896   0.39912
 Alpha virt. eigenvalues --    0.40398   0.41675   0.42424   0.42558   0.43190
 Alpha virt. eigenvalues --    0.43597   0.45298   0.45703   0.46787   0.47614
 Alpha virt. eigenvalues --    0.49224   0.51080   0.52535   0.53440   0.56652
 Alpha virt. eigenvalues --    0.59097   0.60732   0.63689   0.63780   0.64096
 Alpha virt. eigenvalues --    0.65145   0.65455   0.66301   0.66806   0.68190
 Alpha virt. eigenvalues --    0.68806   0.70185   0.71249   0.71461   0.71754
 Alpha virt. eigenvalues --    0.71992   0.72366   0.73178   0.73417   0.73832
 Alpha virt. eigenvalues --    0.74429   0.74863   0.75375   0.75781   0.76511
 Alpha virt. eigenvalues --    0.77796   0.78014   0.78308   0.78758   0.79305
 Alpha virt. eigenvalues --    0.80581   0.80770   0.83037   0.83091   0.84690
 Alpha virt. eigenvalues --    0.85126   0.86073   0.87454   0.88251   0.88849
 Alpha virt. eigenvalues --    0.90485   0.91230   0.92547   0.94485   0.94924
 Alpha virt. eigenvalues --    0.95776   0.96505   0.97977   0.98856   0.98991
 Alpha virt. eigenvalues --    0.99742   1.00003   1.00599   1.01485   1.01656
 Alpha virt. eigenvalues --    1.02844   1.03587   1.03719   1.04510   1.05879
 Alpha virt. eigenvalues --    1.06444   1.08016   1.08437   1.09583   1.09960
 Alpha virt. eigenvalues --    1.10687   1.13079   1.14028   1.14913   1.15361
 Alpha virt. eigenvalues --    1.16898   1.17165   1.18241   1.18390   1.19000
 Alpha virt. eigenvalues --    1.19502   1.19762   1.19891   1.21177   1.22223
 Alpha virt. eigenvalues --    1.22318   1.24022   1.25454   1.26667   1.27425
 Alpha virt. eigenvalues --    1.28438   1.28884   1.29245   1.29552   1.29992
 Alpha virt. eigenvalues --    1.30906   1.31679   1.32631   1.32912   1.33050
 Alpha virt. eigenvalues --    1.34339   1.34561   1.35401   1.36143   1.36500
 Alpha virt. eigenvalues --    1.37444   1.38833   1.39175   1.39222   1.40411
 Alpha virt. eigenvalues --    1.40490   1.42580   1.44501   1.46945   1.48180
 Alpha virt. eigenvalues --    1.49524   1.50101   1.52086   1.52249   1.54023
 Alpha virt. eigenvalues --    1.54183   1.55433   1.55801   1.59595   1.60758
 Alpha virt. eigenvalues --    1.64455   1.68784   1.69466   1.71885   1.73770
 Alpha virt. eigenvalues --    1.75192   1.77503   1.78202   1.79149   1.79538
 Alpha virt. eigenvalues --    1.80236   1.80976   1.81161   1.82857   1.84217
 Alpha virt. eigenvalues --    1.85101   1.87556   1.87701   1.87887   1.88847
 Alpha virt. eigenvalues --    1.89184   1.91543   1.91856   1.92576   1.92669
 Alpha virt. eigenvalues --    1.93317   1.93855   1.94474   1.95440   1.96618
 Alpha virt. eigenvalues --    1.97010   1.97415   1.97756   1.98712   1.99036
 Alpha virt. eigenvalues --    2.00535   2.01893   2.02275   2.02977   2.05773
 Alpha virt. eigenvalues --    2.07145   2.09022   2.09690   2.11191   2.11824
 Alpha virt. eigenvalues --    2.16525   2.18864   2.19324   2.20505   2.21212
 Alpha virt. eigenvalues --    2.21681   2.22774   2.24389   2.25465   2.26326
 Alpha virt. eigenvalues --    2.28082   2.32053   2.32611   2.33822   2.35232
 Alpha virt. eigenvalues --    2.36982   2.38689   2.39200   2.39853   2.41319
 Alpha virt. eigenvalues --    2.41653   2.43273   2.44075   2.44319   2.45036
 Alpha virt. eigenvalues --    2.47571   2.48283   2.49956   2.50213   2.51536
 Alpha virt. eigenvalues --    2.51912   2.53647   2.54468   2.54737   2.57537
 Alpha virt. eigenvalues --    2.57979   2.59547   2.59882   2.61398   2.63010
 Alpha virt. eigenvalues --    2.63298   2.64211   2.64916   2.65408   2.66409
 Alpha virt. eigenvalues --    2.69056   2.69530   2.69997   2.72238   2.73575
 Alpha virt. eigenvalues --    2.73867   2.75898   2.79426   2.80805   2.81635
 Alpha virt. eigenvalues --    2.82707   2.85691   2.85822   2.91072   2.94040
 Alpha virt. eigenvalues --    2.99200   3.02338   3.03915   3.05633   3.07170
 Alpha virt. eigenvalues --    3.11325   3.12448   3.13984   3.17125   3.19325
 Alpha virt. eigenvalues --    3.20475   3.21387   3.27004   3.28263   3.29084
 Alpha virt. eigenvalues --    3.29893   3.32502   3.34958   3.37833   3.42711
 Alpha virt. eigenvalues --    3.43501   3.51023   3.53652   3.54135   3.73219
 Alpha virt. eigenvalues --    3.80518   3.88231
          Condensed to atoms (all electrons):
               1          2          3          4          5          6
     1  C   13.632098  -1.987012   0.051374  -0.064255  -2.966862   0.149604
     2  C   -1.987012  15.284334  -4.121327   0.071570  -1.149165   2.887002
     3  C    0.051374  -4.121327  11.548578   0.353912   3.294213  -3.570887
     4  H   -0.064255   0.071570   0.353912   0.603500   0.105594  -0.058810
     5  C   -2.966862  -1.149165   3.294213   0.105594  20.518275 -11.340053
     6  C    0.149604   2.887002  -3.570887  -0.058810 -11.340053  19.710112
     7  H    0.165352  -0.017751   0.094549   0.001717   0.486770  -0.246585
     8  H   -0.048953   0.100017  -0.026860  -0.015857   0.056993   0.330749
     9  C    0.403258  -2.745717  -0.728169   0.068355  -2.292275  -3.262446
    10  C   -2.602217  -1.584106  -0.983475   0.003908  -0.283440   1.393966
    11  N    0.168477   0.273729   0.046712   0.000479  -0.026327  -0.047673
    12  C   -1.133359  -1.478903  -0.064413  -0.227664  -1.543301   0.379519
    13  N    0.277350   0.100381  -0.073715   0.004097   0.056243  -0.023555
    14  N   -0.227819   0.300767   0.330935  -0.001774  -0.991001   1.751875
    15  N    0.167488  -0.249853  -0.174674   0.005344   1.304663  -2.036255
    16  C    0.005949   0.010533  -0.006262   0.000049  -0.114819   0.009944
    17  C    0.019315  -0.075631   0.055807   0.002430   1.658182  -1.252131
    18  C   -0.141863  -0.016903   0.059352   0.001604  -0.028332  -0.250130
    19  C   -0.011652   0.086425  -0.074320  -0.000202  -0.393206   0.210397
    20  C   -0.005067  -0.027724   0.032939   0.000400   0.453728  -0.263196
    21  C    0.007139   0.010863  -0.006212  -0.000135  -0.063232   0.045188
    22  C   -0.003763  -0.007510   0.009478   0.000262   0.135908  -0.148203
    23  C    0.001342   0.002671  -0.004965  -0.000139  -0.024088   0.042835
    24  C    0.049723  -0.023644   0.016029  -0.002162  -0.491065   0.713790
    25  C    0.031182  -0.040505   0.004078  -0.001462  -0.772413   0.594352
    26  H   -0.000018  -0.000084   0.000106   0.000002   0.000014  -0.000308
    27  H   -0.000027   0.000087  -0.000129  -0.000002  -0.000357   0.000519
    28  H    0.000201  -0.000753   0.000548   0.000010  -0.001514   0.002508
    29  H    0.013650   0.006186  -0.014455   0.001089   0.010144  -0.027157
    30  H   -0.000197  -0.000130   0.000073   0.000002  -0.001359   0.001063
    31  H   -0.003236  -0.000183   0.001148  -0.000014   0.021635   0.001185
    32  O   -0.000001  -0.000018   0.000012   0.000000   0.000047   0.000025
    33  H    0.000010   0.000036  -0.000022   0.000000  -0.000363   0.000182
               7          8          9         10         11         12
     1  C    0.165352  -0.048953   0.403258  -2.602217   0.168477  -1.133359
     2  C   -0.017751   0.100017  -2.745717  -1.584106   0.273729  -1.478903
     3  C    0.094549  -0.026860  -0.728169  -0.983475   0.046712  -0.064413
     4  H    0.001717  -0.015857   0.068355   0.003908   0.000479  -0.227664
     5  C    0.486770   0.056993  -2.292275  -0.283440  -0.026327  -1.543301
     6  C   -0.246585   0.330749  -3.262446   1.393966  -0.047673   0.379519
     7  H    0.661559  -0.004151  -0.002959  -0.340285   0.010135   0.005717
     8  H   -0.004151   0.624107  -0.133423   0.015738  -0.000135  -0.008714
     9  C   -0.002959  -0.133423  16.431445  -0.745531   0.037494   0.242790
    10  C   -0.340285   0.015738  -0.745531  13.724690  -0.138548  -2.309908
    11  N    0.010135  -0.000135   0.037494  -0.138548   7.036902   0.024916
    12  C    0.005717  -0.008714   0.242790  -2.309908   0.024916  12.258694
    13  N    0.000634   0.000107   0.000046   0.008951   0.004770   0.004201
    14  N   -0.109447   0.022006  -1.586485   0.148708  -0.001228  -0.040273
    15  N    0.134504  -0.033530   1.159842  -0.168861   0.002374   0.024735
    16  C    0.004930  -0.000056   0.126725  -0.004419   0.000090   0.000413
    17  C    0.067657  -0.008198  -0.662219  -0.073423   0.000997  -0.000190
    18  C   -0.037092   0.005393   0.465197   0.055423  -0.000570  -0.025355
    19  C   -0.022283  -0.001375   0.358655   0.016431   0.000026  -0.003906
    20  C    0.016121   0.000024  -0.396479  -0.011172   0.000106  -0.001607
    21  C    0.007309   0.000027   0.046351  -0.002557   0.000020   0.000464
    22  C    0.006259  -0.001867  -0.054739  -0.001331   0.000008  -0.000274
    23  C   -0.001379   0.001229  -0.005664   0.000375  -0.000002   0.000141
    24  C   -0.009998   0.005594  -0.272189  -0.003955  -0.000005   0.005697
    25  C   -0.020926   0.001600   0.183805  -0.004849  -0.000074   0.009897
    26  H    0.000026  -0.000036  -0.000019  -0.000005   0.000000  -0.000001
    27  H   -0.000029   0.000121   0.000166   0.000009   0.000000  -0.000001
    28  H   -0.000122  -0.001221  -0.000767  -0.000014   0.000000   0.000069
    29  H    0.004732  -0.017939  -0.009252  -0.003377   0.000047  -0.002603
    30  H    0.000454   0.000010  -0.000426   0.000059   0.000001  -0.000013
    31  H   -0.015917   0.000526  -0.022397   0.008811  -0.000188  -0.000598
    32  O    0.000039  -0.000005  -0.000450  -0.000001   0.000000   0.000000
    33  H   -0.000042   0.000001   0.000472   0.000008   0.000000   0.000001
              13         14         15         16         17         18
     1  C    0.277350  -0.227819   0.167488   0.005949   0.019315  -0.141863
     2  C    0.100381   0.300767  -0.249853   0.010533  -0.075631  -0.016903
     3  C   -0.073715   0.330935  -0.174674  -0.006262   0.055807   0.059352
     4  H    0.004097  -0.001774   0.005344   0.000049   0.002430   0.001604
     5  C    0.056243  -0.991001   1.304663  -0.114819   1.658182  -0.028332
     6  C   -0.023555   1.751875  -2.036255   0.009944  -1.252131  -0.250130
     7  H    0.000634  -0.109447   0.134504   0.004930   0.067657  -0.037092
     8  H    0.000107   0.022006  -0.033530  -0.000056  -0.008198   0.005393
     9  C    0.000046  -1.586485   1.159842   0.126725  -0.662219   0.465197
    10  C    0.008951   0.148708  -0.168861  -0.004419  -0.073423   0.055423
    11  N    0.004770  -0.001228   0.002374   0.000090   0.000997  -0.000570
    12  C    0.004201  -0.040273   0.024735   0.000413  -0.000190  -0.025355
    13  N    7.034711   0.000339  -0.000182  -0.000001  -0.000009   0.000171
    14  N    0.000339   9.820648  -2.484823  -0.306156  -1.318978   1.003976
    15  N   -0.000182  -2.484823   9.706882   0.393611   1.366051  -1.178710
    16  C   -0.000001  -0.306156   0.393611   9.294732  -0.253992  -1.450897
    17  C   -0.000009  -1.318978   1.366051  -0.253992  11.235627  -2.796045
    18  C    0.000171   1.003976  -1.178710  -1.450897  -2.796045  12.829912
    19  C    0.000018   0.244110  -0.264149  -0.321973  -1.282645   1.308824
    20  C    0.000005  -0.019451   0.049983  -2.049062   1.666673  -2.669038
    21  C   -0.000001   0.057358  -0.190183  -0.337001  -2.374601   3.780054
    22  C    0.000000  -0.035876   0.075089   0.210294   1.302177  -2.337112
    23  C    0.000000  -0.032500   0.023414  -0.318300  -0.079929   0.509461
[...]
 9,-0.00106353,-0.00017469,-0.00116882,-0.03045863,-0.00010747,-0.07254
 114,-0.05918785,-0.00057176,0.00871642,0.02449045,0.00009495,-0.000124
 69,-0.00143445,-0.00000312,0.00102939,0.00047906,0.00006130,0.07280714
 ,0.00005387,-0.00001497,0.00000079,-0.00001886,0.00001557,-0.00000029,
 -0.00003505,0.00001727,-0.00000050,0.00001046,0.00000100,0.00000015,0.
 00006123,-0.00000964,0.00000090,0.00009121,-0.00002662,0.00000133,-0.0
 0001930,0.00000777,-0.00000028,0.00000613,-0.00000321,0.00000006,-0.00
 015192,-0.00004189,-0.00000212,0.00000072,0.00000553,0.00000002,0.0000
 0587,-0.00000559,0.00000008,-0.00003340,-0.00000100,-0.00000050,0.0000
 2517,0.00000631,0.00000039,0.00013894,0.00019491,0.00000185,-0.0001884
 7,-0.00018600,-0.00000311,0.00006129,0.00000384,0.00000070,0.00036785,
 -0.00026445,0.00000591,-0.00071688,-0.00053868,-0.00001157,0.00352407,
 -0.00035858,0.00004248,0.00042386,0.00056037,0.00000749,0.00001314,0.0
 0011637,0.00000147,-0.00184656,0.00137392,-0.00003243,0.00071146,-0.00
 492926,0.00000077,-0.05901692,-0.32642279,-0.00120005,-0.00615633,-0.0
 1634290,-0.00011449,0.00014948,-0.00032866,0.00000188,-0.00025809,0.00
 070926,0.00000041,0.06286471,0.34566392,0.00000015,0.00000003,-0.00000
 518,-0.00000025,-0.00000013,0.00002126,-0.00000002,-0.00000028,0.00000
 201,-0.00000017,0.00000002,0.00000573,0.00000004,-0.00000007,-0.000002
 47,-0.00000038,0.00000075,-0.00000381,0.00000006,-0.00000004,0.0000000
 3,-0.00000066,-0.00000003,0.00002236,0.00000240,-0.00000005,-0.0001678
 3,-0.00000010,0.00000012,0.00000065,0.00000012,-0.00000015,-0.00000299
 ,-0.00000018,-0.00000006,0.00000353,0.00000021,0.00000002,-0.00000380,
 -0.00000515,-0.00000047,0.00039063,-0.00000163,-0.00000178,0.00008293,
 -0.00000544,-0.00000125,0.00019148,0.00000684,0.00000587,-0.00067358,0
 .00000998,0.00000977,0.00028919,-0.00017330,0.00003657,0.00837467,-0.0
 0000644,0.00001276,-0.00050207,0.00001332,-0.00000252,-0.00101324,-0.0
 0017557,-0.00002082,0.00583480,-0.00007237,-0.00046189,0.00375853,-0.0
 0057156,-0.00120255,-0.03852034,0.00006042,0.00034035,0.00417903,-0.00
 000133,-0.00002164,-0.00002386,0.00006047,0.00001136,-0.00306326,0.000
 76824,0.00129313,0.02583060,-0.00000488,0.00002707,-0.00000020,0.00003
 037,-0.00005339,0.00000018,0.00008331,-0.00010762,0.00000124,0.0000158
 4,0.00000199,0.00000010,0.00001542,0.00004501,0.00000047,-0.00008319,0
 .00012465,0.00000055,-0.00001614,-0.00000112,-0.00000061,-0.00031103,-
 0.00022137,-0.00000738,-0.00064651,0.00002685,-0.00001734,-0.00001992,
 0.00002844,0.00000008,0.00002489,-0.00003587,0.00000038,-0.00001436,-0
 .00001688,-0.00000023,0.00003358,0.00001076,0.00000059,-0.00912220,0.0
 0327904,-0.00009795,0.00321673,0.00041426,0.00002156,-0.00044217,0.000
 31394,-0.00000449,0.00007147,0.00041029,0.00000378,-0.00069150,-0.0005
 1144,0.00004030,0.00018613,-0.00061662,-0.00004767,0.00195987,-0.00007
 328,-0.00005648,0.00047020,-0.00018406,0.00000370,0.00054762,0.0008157
 3,0.00002325,-0.00109464,0.00287972,-0.00014073,-0.01378626,-0.0070965
 6,-0.00027886,-0.32649072,-0.09532986,-0.00436796,-0.00002373,-0.00002
 949,0.00001691,-0.00050866,-0.00039355,-0.00000947,0.00092778,0.000033
 76,0.00008887,0.34615988,0.00000411,-0.00003148,0.00000001,0.00003434,
 0.00015147,0.00000067,-0.00004101,-0.00009170,-0.00000070,-0.00003404,
 -0.00000148,-0.00000052,-0.00058100,-0.00010524,-0.00000873,-0.0000490
 1,0.00019667,-0.00000037,0.00008207,-0.00001072,0.00000118,-0.00008246
 ,0.00002847,-0.00000139,0.00036341,0.00142002,0.00000646,-0.00005418,-
 0.00002211,-0.00000080,-0.00001163,0.00003588,-0.00000013,0.00003151,-
 0.00001081,0.00000046,-0.00003118,-0.00000871,-0.00000047,0.00178393,-
 0.00016448,0.00002876,-0.00215678,-0.00238201,-0.00003669,0.00067786,-
 0.00038855,0.00000975,-0.00051744,-0.00065012,-0.00000825,0.00120382,0
 .00136265,0.00002327,-0.03109411,-0.00532239,-0.00047134,0.00036662,-0
 .00560208,-0.00000740,-0.00216794,0.00091606,-0.00003137,0.00041900,-0
 .00108180,0.00000608,0.00328650,-0.00252210,0.00003623,0.02191243,0.01
 043552,0.00033204,-0.09040376,-0.08905308,-0.00139811,-0.00009084,0.00
 013126,0.00000011,0.00107548,0.00033576,0.00001623,-0.00031317,0.00101
 738,0.00000220,0.09617659,0.09223437,-0.00000023,0.00000036,0.00001074
 ,0.00000028,-0.00000065,0.00001421,0.00000133,-0.00000170,-0.00000846,
 0.00000006,0.00000002,0.00000924,-0.00000023,0.00000057,-0.00001219,0.
 00000034,0.00000221,-0.00011045,-0.00000052,-0.00000006,0.00002481,-0.
 00000722,-0.00000345,0.00016846,-0.00001696,0.00000136,0.00052350,-0.0
 0000001,0.00000042,-0.00002307,0.00000041,-0.00000049,-0.00000349,-0.0
 0000017,-0.00000026,-0.00000026,0.00000054,0.00000016,-0.00000528,-0.0
 0009957,0.00005114,-0.00228348,0.00001870,0.00000141,0.00179730,-0.000
 00410,0.00000436,-0.00011539,0.00000273,0.00000552,-0.00015128,0.00004
 218,-0.00000216,-0.00344443,-0.00008199,-0.00001890,0.00334654,-0.0000
 5597,-0.00001391,0.00575877,0.00000147,-0.00000195,0.00020777,0.000022
 79,0.00001200,-0.00095565,-0.00014019,0.00003018,0.00859737,-0.0002460
 1,-0.00009858,0.00445562,-0.00436266,-0.00147133,-0.03958174,0.0000168
 2,0.00000102,-0.00116381,-0.00000781,-0.00000558,0.00009905,0.00008841
 ,0.00000733,-0.00505128,0.00484002,0.00150105,0.02753158,-0.00007060,0
 .00001019,-0.00000103,0.00001430,-0.00001891,-0.00000028,0.00003552,-0
 .00001441,0.00000020,-0.00001064,-0.00000201,-0.00000012,-0.00008038,0
 .00000802,-0.00000111,-0.00012897,0.00001259,-0.00000235,0.00001964,-0
 .00002007,0.00000032,0.00000961,0.00000685,0.00000021,0.00016358,-0.00
 010847,0.00000624,0.00001181,-0.00002957,0.00000010,-0.00000818,0.0000
 3686,0.00000004,0.00004861,0.00000288,0.00000076,-0.00004038,-0.000004
 05,-0.00000057,-0.00071619,-0.00031544,-0.00000721,-0.00006252,-0.0014
 3624,-0.00001682,-0.07224938,-0.06010945,-0.00067355,-0.00254481,-0.03
 197348,-0.00009582,-0.00458599,0.00104845,-0.00015077,-0.00083132,0.00
 035125,-0.00000769,-0.00355306,0.00227659,-0.00013958,0.00641285,0.022
 60762,0.00006341,0.00083040,0.00078765,0.00000970,-0.00011659,0.000358
 67,0.00000988,-0.00028553,-0.00002235,-0.00000564,0.00023526,-0.000273
 76,0.00001205,0.00002752,-0.00001692,-0.00000393,0.00003155,0.00011112
 ,0.00000053,0.00002071,-0.00000850,-0.00000146,-0.00002296,0.00005099,
 -0.00000105,0.07339972,-0.00004669,0.00000997,-0.00000068,0.00000499,-
 0.00001784,0.00000002,0.00002179,-0.00000010,0.00000030,-0.00000584,-0
 .00000197,-0.00000009,-0.00004450,0.00000502,-0.00000065,-0.00006196,0
 .00000719,-0.00000095,0.00001792,-0.00000999,0.00000026,0.00000801,0.0
 0000750,0.00000013,0.00009757,-0.00001143,0.00000174,0.00000848,-0.000
 01810,0.00000010,-0.00001101,0.00002149,-0.00000013,0.00003581,0.00000
 220,0.00000054,-0.00003221,-0.00000421,-0.00000048,-0.00016639,-0.0001
 2700,-0.00000233,0.00005496,-0.00034449,-0.00000067,-0.05997193,-0.322
 56935,-0.00122069,-0.00059207,-0.00476075,-0.00001587,-0.00076217,0.00
 227986,-0.00001514,0.00037108,0.00017045,0.00000603,0.00406166,-0.0002
 9368,0.00005307,-0.01036267,-0.01845539,-0.00017910,-0.00096488,-0.000
 61853,-0.00001528,0.00034603,-0.00029250,0.00000567,0.00018393,0.00003
 084,0.00000266,-0.00009782,0.00014065,-0.00000061,0.00007848,-0.000027
 41,0.00000080,-0.00003292,-0.00012136,-0.00000063,-0.00000161,-0.00001
 854,-0.00000018,-0.00001027,-0.00001381,-0.00000023,0.06608066,0.34179
 712,-0.00000109,0.00000016,-0.00000074,-0.00000025,-0.00000034,0.00003
 155,0.00000024,-0.00000024,0.00002103,-0.00000013,-0.00000003,-0.00000
 265,-0.00000117,0.00000013,-0.00000530,-0.00000244,0.00000016,0.000030
 58,0.00000036,-0.00000031,-0.00000323,0.00000021,0.00000011,-0.0000036
 9,0.00000649,-0.00000131,-0.00026552,0.00000015,-0.00000046,0.00000250
 ,-0.00000001,0.00000058,-0.00000833,0.00000080,0.00000005,-0.00000248,
 -0.00000060,-0.00000006,-0.00000235,-0.00000703,-0.00000454,-0.0002551
 8,-0.00001509,-0.00002278,0.00095984,-0.00067327,-0.00122276,-0.031465
 91,-0.00006027,-0.00048149,0.00146337,-0.00015289,0.00001175,0.0056547
 8,-0.00000762,0.00000570,-0.00028638,-0.00013753,0.00002658,0.00602671
 ,0.00002583,0.00031014,0.00387214,0.00000769,0.00001073,0.00023662,0.0
 0000987,0.00000582,-0.00075519,-0.00000539,-0.00000040,0.00009289,0.00
 001224,-0.00000320,-0.00059758,-0.00000383,-0.00000061,0.00029124,0.00
 000037,0.00000150,0.00000412,-0.00000146,-0.00000028,0.00011868,-0.000
 00112,0.00000068,0.00005140,0.00083760,0.00134389,0.02202045,0.0000258
 0,0.00001510,0.00000026,-0.00003827,0.00003537,-0.00000129,0.00002033,
 0.00001977,0.00000151,0.00000725,0.00000171,0.00000006,0.00000102,-0.0
 0012034,0.00000061,0.00001475,-0.00002073,0.00000031,-0.00017988,-0.00
 006414,-0.00000470,-0.00000308,0.00000846,-0.00000066,0.00005733,0.000
 07262,-0.00000020,-0.00000724,0.00000033,-0.00000020,0.00001573,-0.000
 00836,0.00000064,-0.00002761,0.00000862,-0.00000058,0.00002847,0.00000
 307,0.00000055,-0.00000742,0.00034183,-0.00001740,-0.00046330,-0.00294
 086,0.00008738,-0.01541771,0.02030876,-0.00027042,-0.20881353,0.145540
 22,-0.00236252,0.00806212,-0.00528730,0.00002680,-0.00019598,-0.001864
 05,-0.00008674,0.00003651,-0.00072290,0.00001337,-0.00339384,-0.003101
 12,-0.00014880,-0.00007061,0.00024995,0.00000319,-0.00017075,-0.000161
 02,-0.00000466,0.00018575,-0.00014518,0.00001130,0.00027846,0.00017440
 ,-0.00000611,0.00002033,-0.00002936,0.00000013,-0.00000223,0.00000990,
 -0.00000116,0.00003128,-0.00003196,0.00000200,-0.00002668,-0.00002066,
 -0.00000267,0.00103883,-0.00005153,0.00006588,0.22031479,0.00000128,0.
 00002482,0.00000004,-0.00001579,0.00005938,-0.00000022,0.00006738,-0.0
 0001338,0.00000108,0.00000811,0.00000201,0.00000012,-0.00001787,-0.000
 08941,-0.00000031,-0.00003666,-0.00008258,-0.00000063,-0.00018184,0.00
 001539,-0.00000283,-0.00000121,-0.00000328,-0.00000007,0.00015602,-0.0
 0006952,0.00000214,-0.00001251,0.00001809,-0.00000017,0.00001225,-0.00
 002317,0.00000019,-0.00000760,0.00001263,-0.00000011,0.00002092,0.0000
 0196,0.00000032,-0.00107899,0.00064682,-0.00001661,0.00330071,0.001868
 03,0.00005859,-0.00905535,0.01059589,-0.00012725,0.14266720,-0.1937018
 6,0.00193988,0.02311205,-0.01704134,0.00031691,-0.00338999,-0.00459404
 ,-0.00006183,-0.00060828,-0.00026283,-0.00000828,-0.00250353,-0.000114
 75,-0.00004456,0.00003051,0.00028752,0.00000108,-0.00022327,-0.0001094
 4,-0.00000359,-0.00003786,-0.00054677,-0.00000050,0.00138908,-0.000028
 42,0.00001978,0.00003010,-0.00002819,0.00000040,0.00001952,0.00000057,
 0.00000020,0.00012582,-0.00010307,0.00000187,0.00004102,-0.00002718,0.
 00000041,0.00039688,0.00080611,0.00001068,-0.15341385,0.20199190,0.000
 00025,0.00000024,0.00000952,-0.00000135,0.00000054,0.00005162,0.000001
 56,0.00000037,-0.00008003,0.00000007,0.00000002,0.00000327,0.00000073,
 -0.00000183,-0.00004970,0.00000030,-0.00000039,-0.00000799,-0.00000483
 ,-0.00000109,0.00013133,-0.00000067,0.00000007,0.00004174,-0.00000011,
 0.00000091,0.00007619,-0.00000022,0.00000002,0.00000645,0.00000066,-0.
 00000012,-0.00002790,-0.00000060,0.00000013,0.00001201,0.00000057,0.00
 000006,-0.00000820,-0.00001905,0.00000441,0.00119298,0.00009450,-0.000
 03408,-0.00657923,-0.00030374,0.00030842,0.00435891,-0.00236581,0.0019
 8253,-0.03844625,0.00005914,-0.00010438,0.00585026,-0.00008852,-0.0000
 3918,0.00550659,0.00001347,-0.00000998,-0.00091987,-0.00014814,-0.0000
 5338,0.00639530,0.00000295,0.00000433,-0.00026619,-0.00000473,-0.00000
 265,0.00013092,0.00001142,-0.00000212,-0.00058686,-0.00000471,0.000001
 77,0.00070355,0.00000020,-0.00000048,0.00000935,-0.00000115,0.00000006
 ,0.00007642,0.00000218,-0.00000047,-0.00010605,-0.00000261,-0.00000051
 ,0.00015179,0.00006639,0.00000402,-0.00340427,0.00270581,-0.00207602,0
 .02621526,-0.00146568,0.00038592,-0.00002111,0.00029948,-0.00044400,0.
 00000448,0.00097497,0.00002954,0.00001425,-0.00009817,-0.00004388,-0.0
 0000148,-0.00103835,0.00024390,-0.00001509,-0.00172421,-0.00023523,-0.
 00002443,0.00018947,-0.00011687,0.00000277,0.00010152,0.00009528,0.000
 00140,0.00399704,0.00020095,0.00005721,0.00017471,-0.00036673,0.000002
 07,-0.00020766,0.00041564,-0.00000272,0.00101016,0.00007517,0.00001507
 ,-0.00082232,-0.00012227,-0.00001242,-0.00474899,-0.00624095,-0.000081
 67,0.01050266,0.00460189,0.00017926,-0.06403343,-0.00870013,-0.0011460
 1,0.00980524,0.01097635,0.00002545,-0.01333515,-0.00315491,-0.00018425
 ,0.00379986,0.00113863,0.00000555,-0.01918801,-0.02488133,-0.00039332,
 -0.30217529,-0.01610590,-0.00383025,-0.00403365,0.00609569,-0.00002935
 ,-0.00031505,-0.00317607,-0.00000669,0.00220467,0.00027007,0.00003973,
 0.00011504,0.00104211,0.00000105,0.00166477,-0.00081738,0.00002083,0.0
 0003430,-0.00016139,-0.00000426,0.00017981,-0.00008812,0.00000213,-0.0
 0046104,0.00034847,-0.00000853,0.00369598,-0.00028459,0.00012065,-0.00
 149660,-0.00083616,-0.00001471,0.42229407,-0.00035183,0.00009207,-0.00
 000510,0.00005429,-0.00010658,0.00000073,0.00021823,0.00003558,0.00000
 326,-0.00002149,-0.00001216,-0.00000033,-0.00027722,0.00001291,-0.0000
 0410,-0.00037520,-0.00006908,-0.00000554,0.00003830,-0.00004358,0.0000
 0053,0.00004554,0.00004020,0.00000071,0.00091537,0.00015129,0.00001358
 ,0.00004989,-0.00011425,0.00000060,-0.00005492,0.00013022,-0.00000068,
 0.00024772,0.00002010,0.00000370,-0.00020916,-0.00002747,-0.00000314,-
 0.00083613,-0.00110373,-0.00001398,0.00211529,0.00194000,0.00003498,0.
 02541431,0.01416695,0.00037891,-0.00009526,-0.00581649,-0.00001817,-0.
 00333961,0.00225408,-0.00004567,0.00694232,-0.00742346,0.00009066,-0.0
 5039478,-0.01957461,-0.00077597,-0.06580405,-0.12021312,-0.00106142,-0
 .00216177,0.00137971,-0.00002869,-0.00269650,-0.00135299,-0.00004144,0
 .00132437,-0.00038197,0.00001973,-0.00254180,0.00061035,-0.00003718,-0
 .00158865,-0.00362238,-0.00002786,0.00007655,-0.00006411,0.00000072,-0
 .00003716,-0.00010202,-0.00000070,-0.00002989,-0.00065374,-0.00000133,
 0.00093538,0.00285067,0.00002219,0.00095331,0.00042158,0.00001527,0.10
 529532,0.64478898,-0.00002194,0.00000585,-0.00001411,0.00000505,-0.000
 00667,-0.00003662,0.00001447,0.00000046,0.00001664,-0.00000145,-0.0000
 0066,-0.00000195,-0.00001566,0.00000364,-0.00000374,-0.00002457,-0.000
 00346,-0.00009725,0.00000294,-0.00000178,-0.00000553,0.00000134,0.0000
 0144,0.00001498,0.00005798,0.00000297,0.00015935,0.00000255,-0.0000055
 8,0.00000688,-0.00000325,0.00000631,0.00000726,0.00001524,0.00000114,0
 .00000173,-0.00001250,-0.00000185,0.00000417,-0.00007547,-0.00009417,0
 .00027362,0.00017640,0.00007185,-0.00122358,-0.00110730,-0.00012725,0.
 01253332,0.00001279,0.00014607,0.00893671,-0.00018444,-0.00004292,-0.0
 0116105,0.00001209,0.00000447,0.00350988,-0.00042223,-0.00039740,0.005
 41490,-0.00388695,-0.00032420,-0.04526874,-0.00003868,0.00009379,-0.00
 159101,-0.00000617,-0.00004855,-0.00010555,0.00004092,0.00000408,-0.00
 045100,-0.00000299,0.00001603,0.00012327,0.00001996,-0.00001642,0.0001
 9888,-0.00000399,-0.00000281,0.00030861,0.00000219,-0.00000146,0.00002
 970,-0.00000896,0.00000427,0.00013958,0.00012200,0.00000408,-0.0044541
 3,-0.00001266,-0.00001128,-0.00056966,0.00595648,0.00226357,0.02894230
 ,0.00011846,-0.00002538,0.00000163,-0.00003784,0.00003042,-0.00000027,
 -0.00007267,0.00000262,-0.00000080,0.00000880,0.00000435,0.00000009,0.
 00009995,-0.00004249,0.00000113,0.00013961,0.00002360,0.00000174,-0.00
 003569,0.00000689,-0.00000067,-0.00001304,-0.00001079,-0.00000026,-0.0
 0032144,-0.00001432,-0.00000524,-0.00001472,0.00002929,-0.00000020,0.0
 0002432,-0.00003306,0.00000044,-0.00009263,-0.00000666,-0.00000147,0.0
 0007803,0.00001223,0.00000124,0.00038620,0.00050014,0.00000886,-0.0005
 5954,-0.00007048,-0.00001057,0.00222350,-0.00165414,0.00005698,-0.0008
 6900,-0.00044154,-0.00000025,0.00073471,0.00050176,0.00000905,0.000790
 79,-0.00176117,-0.00000866,-0.00701340,0.00035727,-0.00014656,-0.01082
 307,-0.04995971,-0.00018910,-0.00054690,0.00143136,-0.00000283,0.00023
 700,-0.00020454,0.00000191,0.00016062,0.00018030,0.00000140,-0.0006350
 6,0.00018977,-0.00000451,0.00062564,-0.00035590,0.00001279,-0.00001602
 ,0.00002982,0.00000021,0.00005187,0.00002713,0.00000074,0.00002350,-0.
 00016794,-0.00000017,-0.00068843,0.00212969,-0.00001722,0.00017596,0.0
 0004189,0.00000075,-0.04590015,-0.01381078,-0.00061317,0.06176064,0.00
 018869,-0.00004856,0.00000274,-0.00004117,0.00005396,-0.00000053,-0.00
 013196,-0.00000227,-0.00000194,0.00001078,0.00000516,0.00000016,0.0001
 3435,-0.00003654,0.00000193,0.00022040,0.00004392,0.00000329,-0.000019
 83,0.00001706,-0.00000029,-0.00001138,-0.00001200,-0.00000019,-0.00054
 566,-0.00002608,-0.00000816,-0.00002391,0.00004748,-0.00000030,0.00002
 374,-0.00005528,0.00000030,-0.00012840,-0.00000995,-0.00000192,0.00010
 282,0.00001369,0.00000155,0.00062923,0.00082481,0.00001047,-0.00139552
 ,-0.00071254,-0.00002169,0.00659089,0.00457901,0.00010497,-0.00107762,
 -0.00188770,-0.00001713,0.00167029,0.00060246,0.00002529,0.00009567,-0
 .00064407,-0.00000070,-0.00069545,0.00321384,-0.00001000,-0.00229126,-
 0.01350489,-0.00004716,0.00041536,-0.00023678,0.00000617,-0.00000482,0
 .00036134,0.00000024,-0.00028903,-0.00004887,-0.00000444,-0.00029257,-
 0.00008617,-0.00000408,-0.00033233,0.00013205,-0.00000449,-0.00000144,
 -0.00000396,0.,-0.00001429,0.00000443,-0.00000021,0.00008217,-0.000121
 92,0.00000106,-0.00072898,-0.00042264,-0.00001204,0.00023994,0.0000865
 2,0.00000351,-0.06543906,-0.50821295,-0.00154358,0.06306038,0.51608742
 ,0.00000187,-0.00000044,0.00000690,-0.00000035,0.00000053,-0.00001721,
 -0.00000095,0.00000006,-0.00001837,0.00000010,0.00000007,0.00000285,0.
 00000132,-0.00000070,0.00002085,0.00000196,0.00000037,0.00002428,-0.00
 000070,0.00000011,0.00000969,-0.00000026,-0.00000018,0.00000393,-0.000
 00583,-0.00000028,0.00002978,-0.00000026,0.00000049,0.00000098,0.00000
 050,-0.00000054,-0.00000755,-0.00000160,-0.00000012,0.00000556,0.00000
 134,0.00000020,-0.00000479,0.00000899,0.00000854,-0.00017190,-0.000012
 04,-0.00000201,0.00014658,0.00006633,-0.00001734,-0.00174215,-0.000000
 97,-0.00000769,-0.00088605,0.00001035,0.00000795,0.00016305,-0.0000065
 8,-0.00002824,0.00124204,-0.00014769,0.00000565,0.00288914,-0.00013470
 ,-0.00075427,-0.00191367,-0.00000398,0.00002127,-0.00024808,0.00000214
 ,-0.00000273,0.00009246,0.00000087,0.00000253,0.00007977,-0.00000503,0
 .00000307,-0.00031721,0.00001281,-0.00000485,-0.00026238,0.00000018,0.
 00000047,-0.00002821,0.00000070,0.00000040,0.00000393,0.00000010,-0.00
 000265,0.00002254,-0.00002047,0.00003039,0.00063501,0.00000097,0.00000
 057,0.00012875,-0.00067211,-0.00077781,-0.00563787,0.00090298,0.001517
 16,0.00574731\\-0.00000003,0.00000002,0.00000012,0.00000005,0.00000022
 ,0.00000013,-0.00000009,0.00000008,-0.00000010,-0.00000007,0.00000012,
 0.00000002,0.00000004,-0.00000005,-0.00000012,-0.00000013,0.00000010,0
 .00000007,0.00000004,0.00000010,0.,-0.00000005,0.00000006,-0.00000003,
 0.00000030,0.,0.00000014,0.00000004,0.00000011,-0.00000009,0.00000006,
 0.00000018,0.00000002,-0.00000008,0.00000024,-0.00000010,0.00000002,0.
 00000017,0.00000003,-0.00000021,0.00000048,-0.00000034,-0.00000009,-0.
 00000043,0.00000021,0.00000070,0.00000054,-0.00000003,0.00000042,-0.00
 000056,0.00000002,-0.00000003,0.00000036,-0.00000003,-0.00000024,0.000
 00018,0.00000004,0.00000092,0.00000031,0.,-0.00000039,-0.00000067,-0.0
 0000012,0.00000033,-0.00000057,0.00000012,-0.00000020,0.00000009,-0.00
 000001,-0.00000012,-0.00000005,-0.00000002,-0.00000011,-0.00000029,0.0
 0000010,-0.00000020,-0.00000011,-0.00000003,-0.00000008,-0.00000015,-0
 .00000002,-0.00000010,-0.00000008,0.00000010,0.00000003,-0.00000006,-0
 .00000013,-0.00000011,-0.00000009,0.00000003,-0.00000004,-0.00000006,0
 .00000010,-0.00000077,-0.00000011,-0.00000013,0.00000021,-0.00000007,0
 .00000006\\\@


 The hours that make us happy make us wise.
                         -- John Masefield
 Job cpu time:       0 days  8 hours 53 minutes 19.9 seconds.
 File lengths (MBytes):  RWF=    726 Int=      0 D2E=      0 Chk=     18 Scr=      1
 Normal termination of Gaussian 09 at Sat Feb  5 15:18:17 2022.
