 Entering Gaussian System, Link 0=/home/madghost/g09/g09
 Input=2b_g09.gjf
 Output=2b_g09.log
 Initial command:
 /home/madghost/g09/l1.exe "/scr/pogonin/2b_g09/Gau-30841.inp" -scrdir="/scr/pogonin/2b_g09/"
 Entering Link 1 = /home/madghost/g09/l1.exe PID=     30843.
  
 Copyright (c) 1988,1990,1992,1993,1995,1998,2003,2009,2013,
            Gaussian, Inc.  All Rights Reserved.
  
 This is part of the Gaussian(R) 09 program.  It is based on
 the Gaussian(R) 03 system (copyright 2003, Gaussian, Inc.),
 the Gaussian(R) 98 system (copyright 1998, Gaussian, Inc.),
 the Gaussian(R) 94 system (copyright 1995, Gaussian, Inc.),
 the Gaussian 92(TM) system (copyright 1992, Gaussian, Inc.),
 the Gaussian 90(TM) system (copyright 1990, Gaussian, Inc.),
 the Gaussian 88(TM) system (copyright 1988, Gaussian, Inc.),
 the Gaussian 86(TM) system (copyright 1986, Carnegie Mellon
 University), and the Gaussian 82(TM) system (copyright 1983,
 Carnegie Mellon University). Gaussian is a federally registered
 trademark of Gaussian, Inc.
  
 This software contains proprietary and confidential information,
 including trade secrets, belonging to Gaussian, Inc.
  
 This software is provided under written license and may be
 used, copied, transmitted, or stored only in accord with that
 written license.
  
 The following legend is applicable only to US Government
 contracts under FAR:
  
                    RESTRICTED RIGHTS LEGEND
  
 Use, reproduction and disclosure by the US Government is
 subject to restrictions as set forth in subparagraphs (a)
 and (c) of the Commercial Computer Software - Restricted
 Rights clause in FAR 52.227-19.
  
 Gaussian, Inc.
 340 Quinnipiac St., Bldg. 40, Wallingford CT 06492
  
  
 ---------------------------------------------------------------
 Warning -- This program may not be used in any manner that
 competes with the business of Gaussian, Inc. or will provide
 assistance to any competitor of Gaussian, Inc.  The licensee
 of this program is prohibited from giving any competitor of
 Gaussian, Inc. access to this program.  By using this program,
 the user acknowledges that Gaussian, Inc. is engaged in the
 business of creating and licensing software in the field of
 computational chemistry and represents and warrants to the
 licensee that it is not a competitor of Gaussian, Inc. and that
 it will not use this program in any manner prohibited above.
 ---------------------------------------------------------------
  

 Cite this work as:
 Gaussian 09, Revision D.01,
 M. J. Frisch, G. W. Trucks, H. B. Schlegel, G. E. Scuseria, 
 M. A. Robb, J. R. Cheeseman, G. Scalmani, V. Barone, B. Mennucci, 
 G. A. Petersson, H. Nakatsuji, M. Caricato, X. Li, H. P. Hratchian, 
 A. F. Izmaylov, J. Bloino, G. Zheng, J. L. Sonnenberg, M. Hada, 
 M. Ehara, K. Toyota, R. Fukuda, J. Hasegawa, M. Ishida, T. Nakajima, 
 Y. Honda, O. Kitao, H. Nakai, T. Vreven, J. A. Montgomery, Jr., 
 J. E. Peralta, F. Ogliaro, M. Bearpark, J. J. Heyd, E. Brothers, 
 K. N. Kudin, V. N. Staroverov, T. Keith, R. Kobayashi, J. Normand, 
 K. Raghavachari, A. Rendell, J. C. Burant, S. S. Iyengar, J. Tomasi, 
 M. Cossi, N. Rega, J. M. Millam, M. Klene, J. E. Knox, J. B. Cross, 
 V. Bakken, C. Adamo, J. Jaramillo, R. Gomperts, R. E. Stratmann, 
 O. Yazyev, A. J. Austin, R. Cammi, C. Pomelli, J. W. Ochterski, 
 R. L. Martin, K. Morokuma, V. G. Zakrzewski, G. A. Voth, 
 P. Salvador, J. J. Dannenberg, S. Dapprich, A. D. Daniels, 
 O. Farkas, J. B. Foresman, J. V. Ortiz, J. Cioslowski, 
 and D. J. Fox, Gaussian, Inc., Wallingford CT, 2013.
 
 ******************************************
 Gaussian 09:  EM64L-G09RevD.01 24-Apr-2013
                 5-Feb-2022 
 ******************************************
 %Chk=2b_g09
 % nproc=24
 Will use up to   24 processors via shared memory.
 % mem=50000mb
 -----------------------------------------------------
 #P b3lyp/gen opt(tight) integral(Grid=ultrafine) freq
 -----------------------------------------------------
 1/7=10,14=-1,18=20,19=15,26=4,38=1/1,3;
 2/9=110,12=2,17=6,18=5,40=1/2;
 3/5=7,11=2,16=1,25=1,30=1,71=1,74=-5,75=-5/1,2,3;
 4//1;
 5/5=2,38=5/2;
 6/7=2,8=2,9=2,10=2,28=1/1;
 7//1,2,3,16;
 1/7=10,14=-1,18=20,19=15,26=4/3(2);
 2/9=110/2;
 99//99;
 2/9=110/2;
 3/5=7,6=1,11=2,16=1,25=1,30=1,71=1,74=-5,75=-5,82=7/1,2,3;
 4/5=5,16=3,69=1/1;
 5/5=2,38=5/2;
 7//1,2,3,16;
 1/7=10,14=-1,18=20,19=15,26=4/3(-5);
 2/9=110/2;
 6/7=2,8=2,9=2,10=2,19=2,28=1/1;
 99/9=1/99;
 Leave Link    1 at Sat Feb  5 14:01:22 2022, MaxMem=  6553600000 cpu:         5.3
 (Enter /home/madghost/g09/l101.exe)
 ----------------------------------------------------------------------
 6-31++G** 6-31G + diffuse and polarization functions on all atoms Data
  from Gaussian 09/GAMESS https://www.basissetexchange.org/basis/6-31++
 g_st__st_/format/gaussian94/?version=1&elements=1,6,7,8
 ----------------------------------------------------------------------
 Symbolic Z-matrix:
 Charge =  0 Multiplicity = 1
 6                    -4.555    -0.63088  -0.0344 
 6                    -3.89166   0.62325   0.0387 
 6                    -3.78927  -1.80512  -0.10274 
 1                    -4.29509  -2.76288  -0.1585 
 6                    -2.49637   0.67998   0.04019 
 6                    -2.39974  -1.74035  -0.09736 
 1                    -1.98785   1.6344    0.0959 
 1                    -1.8036   -2.64552  -0.14846 
 6                    -1.74117  -0.5029   -0.02967 
 6                    -4.63811   1.84728   0.11383 
 7                    -5.21513   2.85545   0.17432 
 6                    -5.98423  -0.71795  -0.03747 
 7                    -7.14325  -0.82394  -0.04304 
 7                    -0.32396  -0.55342  -0.02671 
 7                     0.22856   0.58708  -0.03449 
 6                     3.38136   2.39297  -0.07643 
 6                     2.03649   2.02163  -0.06995 
 6                     1.61983   0.68637  -0.02859 
 6                     2.618    -0.36251   0.01306 
 6                     4.00679   0.01932   0.0021 
 6                     4.35827   1.41226  -0.03968 
 6                     5.00493  -0.98886   0.03568 
 6                     4.67471  -2.32763   0.08807 
 6                     3.31751  -2.70428   0.10671 
 6                     2.31706  -1.75001   0.06873 
 1                     6.06061  -0.72721   0.01815 
 1                     5.45497  -3.08201   0.11328 
 1                     3.05075  -3.75619   0.15073 
 1                     1.28029  -2.04884   0.07898 
 1                     3.67965   3.43509  -0.10695 
 1                     1.26282   2.7814   -0.0982 
 8                     5.64669   1.83769  -0.04923 
 1                     6.26417   1.09853   0.0135 
 
 NAtoms=     33 NQM=       33 NQMF=       0 NMMI=      0 NMMIF=      0
                NMic=       0 NMicF=      0.
                    Isotopes and Nuclear Properties:
 (Nuclear quadrupole moments (NQMom) in fm**2, nuclear magnetic moments (NMagM)
  in nuclear magnetons)

  Atom         1           2           3           4           5           6           7           8           9          10
 IAtWgt=          12          12          12           1          12          12           1           1          12          12
 AtmWgt=  12.0000000  12.0000000  12.0000000   1.0078250  12.0000000  12.0000000   1.0078250   1.0078250  12.0000000  12.0000000
 NucSpn=           0           0           0           1           0           0           1           1           0           0
 AtZEff=   0.0000000   0.0000000   0.0000000   0.0000000   0.0000000   0.0000000   0.0000000   0.0000000   0.0000000   0.0000000
 NQMom=    0.0000000   0.0000000   0.0000000   0.0000000   0.0000000   0.0000000   0.0000000   0.0000000   0.0000000   0.0000000
 NMagM=    0.0000000   0.0000000   0.0000000   2.7928460   0.0000000   0.0000000   2.7928460   2.7928460   0.0000000   0.0000000
 AtZNuc=   6.0000000   6.0000000   6.0000000   1.0000000   6.0000000   6.0000000   1.0000000   1.0000000   6.0000000   6.0000000

  Atom        11          12          13          14          15          16          17          18          19          20
 IAtWgt=          14          12          14          14          14          12          12          12          12          12
 AtmWgt=  14.0030740  12.0000000  14.0030740  14.0030740  14.0030740  12.0000000  12.0000000  12.0000000  12.0000000  12.0000000
 NucSpn=           2           0           2           2           2           0           0           0           0           0
 AtZEff=   0.0000000   0.0000000   0.0000000   0.0000000   0.0000000   0.0000000   0.0000000   0.0000000   0.0000000   0.0000000
 NQMom=    2.0440000   0.0000000   2.0440000   2.0440000   2.0440000   0.0000000   0.0000000   0.0000000   0.0000000   0.0000000
 NMagM=    0.4037610   0.0000000   0.4037610   0.4037610   0.4037610   0.0000000   0.0000000   0.0000000   0.0000000   0.0000000
 AtZNuc=   7.0000000   6.0000000   7.0000000   7.0000000   7.0000000   6.0000000   6.0000000   6.0000000   6.0000000   6.0000000

  Atom        21          22          23          24          25          26          27          28          29          30
 IAtWgt=          12          12          12          12          12           1           1           1           1           1
 AtmWgt=  12.0000000  12.0000000  12.0000000  12.0000000  12.0000000   1.0078250   1.0078250   1.0078250   1.0078250   1.0078250
 NucSpn=           0           0           0           0           0           1           1           1           1           1
 AtZEff=   0.0000000   0.0000000   0.0000000   0.0000000   0.0000000   0.0000000   0.0000000   0.0000000   0.0000000   0.0000000
 NQMom=    0.0000000   0.0000000   0.0000000   0.0000000   0.0000000   0.0000000   0.0000000   0.0000000   0.0000000   0.0000000
 NMagM=    0.0000000   0.0000000   0.0000000   0.0000000   0.0000000   2.7928460   2.7928460   2.7928460   2.7928460   2.7928460
 AtZNuc=   6.0000000   6.0000000   6.0000000   6.0000000   6.0000000   1.0000000   1.0000000   1.0000000   1.0000000   1.0000000

  Atom        31          32          33
 IAtWgt=           1          16           1
 AtmWgt=   1.0078250  15.9949146   1.0078250
 NucSpn=           1           0           1
 AtZEff=   0.0000000   0.0000000   0.0000000
 NQMom=    0.0000000   0.0000000   0.0000000
 NMagM=    2.7928460   0.0000000   2.7928460
 AtZNuc=   1.0000000   8.0000000   1.0000000
 Leave Link  101 at Sat Feb  5 14:01:23 2022, MaxMem=  6553600000 cpu:        10.3
 (Enter /home/madghost/g09/l103.exe)

 GradGradGradGradGradGradGradGradGradGradGradGradGradGradGradGradGradGrad
 Berny optimization.
 Initialization pass.
                           ----------------------------
                           !    Initial Parameters    !
                           ! (Angstroms and Degrees)  !
 --------------------------                            --------------------------
 ! Name  Definition              Value          Derivative Info.                !
 --------------------------------------------------------------------------------
 ! R1    R(1,2)                  1.4206         estimate D2E/DX2                !
 ! R2    R(1,3)                  1.4035         estimate D2E/DX2                !
 ! R3    R(1,12)                 1.4319         estimate D2E/DX2                !
 ! R4    R(2,5)                  1.3964         estimate D2E/DX2                !
 ! R5    R(2,10)                 1.4356         estimate D2E/DX2                !
 ! R6    R(3,4)                  1.0846         estimate D2E/DX2                !
 ! R7    R(3,6)                  1.3911         estimate D2E/DX2                !
 ! R8    R(5,7)                  1.0829         estimate D2E/DX2                !
 ! R9    R(5,9)                  1.4051         estimate D2E/DX2                !
 ! R10   R(6,8)                  1.085          estimate D2E/DX2                !
 ! R11   R(6,9)                  1.4034         estimate D2E/DX2                !
 ! R12   R(9,14)                 1.4181         estimate D2E/DX2                !
 ! R13   R(10,11)                1.1632         estimate D2E/DX2                !
 ! R14   R(12,13)                1.1639         estimate D2E/DX2                !
 ! R15   R(14,15)                1.2673         estimate D2E/DX2                !
 ! R16   R(15,18)                1.3948         estimate D2E/DX2                !
 ! R17   R(16,17)                1.3952         estimate D2E/DX2                !
 ! R18   R(16,21)                1.3847         estimate D2E/DX2                !
 ! R19   R(16,30)                1.0844         estimate D2E/DX2                !
 ! R20   R(17,18)                1.3994         estimate D2E/DX2                !
 ! R21   R(17,31)                1.0847         estimate D2E/DX2                !
 ! R22   R(18,19)                1.4485         estimate D2E/DX2                !
 ! R23   R(19,20)                1.4404         estimate D2E/DX2                !
 ! R24   R(19,25)                1.4209         estimate D2E/DX2                !
 ! R25   R(20,21)                1.4372         estimate D2E/DX2                !
 ! R26   R(20,22)                1.4191         estimate D2E/DX2                !
 ! R27   R(21,32)                1.3569         estimate D2E/DX2                !
 ! R28   R(22,23)                1.3799         estimate D2E/DX2                !
 ! R29   R(22,26)                1.0878         estimate D2E/DX2                !
 ! R30   R(23,24)                1.4086         estimate D2E/DX2                !
 ! R31   R(23,27)                1.0856         estimate D2E/DX2                !
 ! R32   R(24,25)                1.3831         estimate D2E/DX2                !
 ! R33   R(24,28)                1.0861         estimate D2E/DX2                !
 ! R34   R(25,29)                1.079          estimate D2E/DX2                !
 ! R35   R(32,33)                0.9652         estimate D2E/DX2                !
 ! A1    A(2,1,3)              119.1            estimate D2E/DX2                !
 ! A2    A(2,1,12)             121.3225         estimate D2E/DX2                !
 ! A3    A(3,1,12)             119.5774         estimate D2E/DX2                !
 ! A4    A(1,2,5)              120.1633         estimate D2E/DX2                !
 ! A5    A(1,2,10)             120.8362         estimate D2E/DX2                !
 ! A6    A(5,2,10)             119.0005         estimate D2E/DX2                !
 ! A7    A(1,3,4)              119.1352         estimate D2E/DX2                !
 ! A8    A(1,3,6)              120.3873         estimate D2E/DX2                !
 ! A9    A(4,3,6)              120.4774         estimate D2E/DX2                !
 ! A10   A(2,5,7)              120.3364         estimate D2E/DX2                !
 ! A11   A(2,5,9)              120.1825         estimate D2E/DX2                !
 ! A12   A(7,5,9)              119.481          estimate D2E/DX2                !
 ! A13   A(3,6,8)              120.6495         estimate D2E/DX2                !
 ! A14   A(3,6,9)              120.6632         estimate D2E/DX2                !
 ! A15   A(8,6,9)              118.687          estimate D2E/DX2                !
 ! A16   A(5,9,6)              119.5028         estimate D2E/DX2                !
 ! A17   A(5,9,14)             124.5411         estimate D2E/DX2                !
 ! A18   A(6,9,14)             115.954          estimate D2E/DX2                !
 ! A19   A(9,14,15)            113.8052         estimate D2E/DX2                !
 ! A20   A(14,15,18)           119.9278         estimate D2E/DX2                !
 ! A21   A(17,16,21)           119.4333         estimate D2E/DX2                !
 ! A22   A(17,16,30)           121.4031         estimate D2E/DX2                !
 ! A23   A(21,16,30)           119.1634         estimate D2E/DX2                !
 ! A24   A(16,17,18)           122.7589         estimate D2E/DX2                !
 ! A25   A(16,17,31)           120.0646         estimate D2E/DX2                !
 ! A26   A(18,17,31)           117.1765         estimate D2E/DX2                !
 ! A27   A(15,18,17)           111.395          estimate D2E/DX2                !
 ! A28   A(15,18,19)           129.4877         estimate D2E/DX2                !
 ! A29   A(17,18,19)           119.1173         estimate D2E/DX2                !
 ! A30   A(18,19,20)           118.1803         estimate D2E/DX2                !
 ! A31   A(18,19,25)           124.2138         estimate D2E/DX2                !
 ! A32   A(20,19,25)           117.6055         estimate D2E/DX2                !
 ! A33   A(19,20,21)           119.5344         estimate D2E/DX2                !
 ! A34   A(19,20,22)           119.3188         estimate D2E/DX2                !
 ! A35   A(21,20,22)           121.1466         estimate D2E/DX2                !
 ! A36   A(16,21,20)           120.9744         estimate D2E/DX2                !
 ! A37   A(16,21,32)           116.593          estimate D2E/DX2                !
 ! A38   A(20,21,32)           122.4324         estimate D2E/DX2                !
 ! A39   A(20,22,23)           121.4559         estimate D2E/DX2                !
 ! A40   A(20,22,26)           120.7536         estimate D2E/DX2                !
 ! A41   A(23,22,26)           117.7903         estimate D2E/DX2                !
 ! A42   A(22,23,24)           119.3734         estimate D2E/DX2                !
 ! A43   A(22,23,27)           120.2037         estimate D2E/DX2                !
 ! A44   A(24,23,27)           120.4229         estimate D2E/DX2                !
 ! A45   A(23,24,25)           120.8027         estimate D2E/DX2                !
 ! A46   A(23,24,28)           119.7455         estimate D2E/DX2                !
 ! A47   A(25,24,28)           119.4517         estimate D2E/DX2                !
 ! A48   A(19,25,24)           121.4415         estimate D2E/DX2                !
 ! A49   A(19,25,29)           118.3155         estimate D2E/DX2                !
 ! A50   A(24,25,29)           120.2429         estimate D2E/DX2                !
 ! A51   A(21,32,33)           111.5252         estimate D2E/DX2                !
 ! A52   L(2,10,11,13,-1)      181.5888         estimate D2E/DX2                !
 ! A53   L(1,12,13,11,-1)      181.745          estimate D2E/DX2                !
 ! A54   L(2,10,11,13,-2)      180.0688         estimate D2E/DX2                !
 ! A55   L(1,12,13,11,-2)      179.9502         estimate D2E/DX2                !
 ! D1    D(3,1,2,5)              0.0909         estimate D2E/DX2                !
 ! D2    D(3,1,2,10)          -179.8192         estimate D2E/DX2                !
 ! D3    D(12,1,2,5)           179.9924         estimate D2E/DX2                !
 ! D4    D(12,1,2,10)            0.0823         estimate D2E/DX2                !
 ! D5    D(2,1,3,4)            179.996          estimate D2E/DX2                !
 ! D6    D(2,1,3,6)              0.0718         estimate D2E/DX2                !
 ! D7    D(12,1,3,4)             0.0928         estimate D2E/DX2                !
 ! D8    D(12,1,3,6)          -179.8314         estimate D2E/DX2                !
 ! D9    D(1,2,5,7)           -179.9949         estimate D2E/DX2                !
 ! D10   D(1,2,5,9)             -0.0435         estimate D2E/DX2                !
 ! D11   D(10,2,5,7)            -0.0832         estimate D2E/DX2                !
 ! D12   D(10,2,5,9)           179.8682         estimate D2E/DX2                !
 ! D13   D(1,3,6,8)            179.9039         estimate D2E/DX2                !
 ! D14   D(1,3,6,9)             -0.2835         estimate D2E/DX2                !
 ! D15   D(4,3,6,8)             -0.0193         estimate D2E/DX2                !
 ! D16   D(4,3,6,9)            179.7933         estimate D2E/DX2                !
 ! D17   D(2,5,9,6)             -0.1646         estimate D2E/DX2                !
 ! D18   D(2,5,9,14)          -179.6208         estimate D2E/DX2                !
 ! D19   D(7,5,9,6)            179.7873         estimate D2E/DX2                !
 ! D20   D(7,5,9,14)             0.3311         estimate D2E/DX2                !
 ! D21   D(3,6,9,5)              0.3293         estimate D2E/DX2                !
 ! D22   D(3,6,9,14)           179.8311         estimate D2E/DX2                !
 ! D23   D(8,6,9,5)           -179.8545         estimate D2E/DX2                !
 ! D24   D(8,6,9,14)            -0.3527         estimate D2E/DX2                !
 ! D25   D(5,9,14,15)           -3.98           estimate D2E/DX2                !
 ! D26   D(6,9,14,15)          176.5464         estimate D2E/DX2                !
 ! D27   D(9,14,15,18)         179.8036         estimate D2E/DX2                !
 ! D28   D(14,15,18,17)        178.6312         estimate D2E/DX2                !
 ! D29   D(14,15,18,19)         -1.3897         estimate D2E/DX2                !
 ! D30   D(21,16,17,18)         -0.053          estimate D2E/DX2                !
 ! D31   D(21,16,17,31)        179.9827         estimate D2E/DX2                !
 ! D32   D(30,16,17,18)       -179.8841         estimate D2E/DX2                !
 ! D33   D(30,16,17,31)          0.1516         estimate D2E/DX2                !
 ! D34   D(17,16,21,20)          0.1328         estimate D2E/DX2                !
 ! D35   D(17,16,21,32)        179.9515         estimate D2E/DX2                !
 ! D36   D(30,16,21,20)        179.9678         estimate D2E/DX2                !
 ! D37   D(30,16,21,32)         -0.2135         estimate D2E/DX2                !
 ! D38   D(16,17,18,15)       -179.8494         estimate D2E/DX2                !
 ! D39   D(16,17,18,19)          0.1692         estimate D2E/DX2                !
 ! D40   D(31,17,18,15)          0.1159         estimate D2E/DX2                !
 ! D41   D(31,17,18,19)       -179.8656         estimate D2E/DX2                !
 ! D42   D(15,18,19,20)        179.6659         estimate D2E/DX2                !
 ! D43   D(15,18,19,25)         -0.5516         estimate D2E/DX2                !
 ! D44   D(17,18,19,20)         -0.3564         estimate D2E/DX2                !
 ! D45   D(17,18,19,25)        179.4261         estimate D2E/DX2                !
 ! D46   D(18,19,20,21)          0.435          estimate D2E/DX2                !
 ! D47   D(18,19,20,22)       -179.6971         estimate D2E/DX2                !
 ! D48   D(25,19,20,21)       -179.3621         estimate D2E/DX2                !
 ! D49   D(25,19,20,22)          0.5058         estimate D2E/DX2                !
 ! D50   D(18,19,25,24)       -179.9942         estimate D2E/DX2                !
 ! D51   D(18,19,25,29)          0.1256         estimate D2E/DX2                !
 ! D52   D(20,19,25,24)         -0.2105         estimate D2E/DX2                !
 ! D53   D(20,19,25,29)        179.9093         estimate D2E/DX2                !
 ! D54   D(19,20,21,16)         -0.3304         estimate D2E/DX2                !
 ! D55   D(19,20,21,32)        179.8616         estimate D2E/DX2                !
 ! D56   D(22,20,21,16)        179.8041         estimate D2E/DX2                !
 ! D57   D(22,20,21,32)         -0.0038         estimate D2E/DX2                !
 ! D58   D(19,20,22,23)         -0.4595         estimate D2E/DX2                !
 ! D59   D(19,20,22,26)        179.3796         estimate D2E/DX2                !
 ! D60   D(21,20,22,23)        179.4062         estimate D2E/DX2                !
 ! D61   D(21,20,22,26)         -0.7546         estimate D2E/DX2                !
 ! D62   D(16,21,32,33)        177.7367         estimate D2E/DX2                !
 ! D63   D(20,21,32,33)         -2.4474         estimate D2E/DX2                !
 ! D64   D(20,22,23,24)          0.0958         estimate D2E/DX2                !
 ! D65   D(20,22,23,27)       -179.9853         estimate D2E/DX2                !
 ! D66   D(26,22,23,24)       -179.7479         estimate D2E/DX2                !
 ! D67   D(26,22,23,27)          0.1709         estimate D2E/DX2                !
 ! D68   D(22,23,24,25)          0.2144         estimate D2E/DX2                !
 ! D69   D(22,23,24,28)       -179.8277         estimate D2E/DX2                !
 ! D70   D(27,23,24,25)       -179.7042         estimate D2E/DX2                !
 ! D71   D(27,23,24,28)          0.2536         estimate D2E/DX2                !
 ! D72   D(23,24,25,19)         -0.1515         estimate D2E/DX2                !
 ! D73   D(23,24,25,29)        179.7264         estimate D2E/DX2                !
 ! D74   D(28,24,25,19)        179.8905         estimate D2E/DX2                !
 ! D75   D(28,24,25,29)         -0.2316         estimate D2E/DX2                !
 --------------------------------------------------------------------------------
 Trust Radius=3.00D-01 FncErr=1.00D-07 GrdErr=1.00D-06
 Number of steps in this run=    175 maximum allowed number of steps=    198.
 GradGradGradGradGradGradGradGradGradGradGradGradGradGradGradGradGradGrad

 Leave Link  103 at Sat Feb  5 14:01:24 2022, MaxMem=  6553600000 cpu:         0.4
 (Enter /home/madghost/g09/l202.exe)
                          Input orientation:                          
 ---------------------------------------------------------------------
 Center     Atomic      Atomic             Coordinates (Angstroms)
 Number     Number       Type             X           Y           Z
 ---------------------------------------------------------------------
      1          6           0       -4.555004   -0.630884   -0.034400
      2          6           0       -3.891662    0.623249    0.038698
      3          6           0       -3.789268   -1.805121   -0.102738
      4          1           0       -4.295095   -2.762880   -0.158496
      5          6           0       -2.496370    0.679982    0.040188
      6          6           0       -2.399735   -1.740348   -0.097355
      7          1           0       -1.987850    1.634404    0.095895
      8          1           0       -1.803599   -2.645515   -0.148459
      9          6           0       -1.741172   -0.502901   -0.029671
     10          6           0       -4.638113    1.847278    0.113834
     11          7           0       -5.215125    2.855452    0.174317
     12          6           0       -5.984234   -0.717948   -0.037471
     13          7           0       -7.143248   -0.823937   -0.043037
     14          7           0       -0.323960   -0.553420   -0.026710
     15          7           0        0.228559    0.587075   -0.034490
     16          6           0        3.381357    2.392970   -0.076426
     17          6           0        2.036495    2.021634   -0.069949
     18          6           0        1.619828    0.686370   -0.028587
     19          6           0        2.617995   -0.362508    0.013062
     20          6           0        4.006788    0.019319    0.002104
     21          6           0        4.358267    1.412260   -0.039684
     22          6           0        5.004927   -0.988857    0.035684
     23          6           0        4.674706   -2.327625    0.088072
     24          6           0        3.317505   -2.704276    0.106710
     25          6           0        2.317059   -1.750008    0.068730
     26          1           0        6.060606   -0.727205    0.018152
     27          1           0        5.454965   -3.082014    0.113282
     28          1           0        3.050753   -3.756193    0.150733
     29          1           0        1.280291   -2.048844    0.078979
     30          1           0        3.679648    3.435092   -0.106945
     31          1           0        1.262815    2.781400   -0.098203
     32          8           0        5.646687    1.837692   -0.049226
     33          1           0        6.264175    1.098528    0.013501
 ---------------------------------------------------------------------
                    Distance matrix (angstroms):
                    1          2          3          4          5
     1  C    0.000000
     2  C    1.420639   0.000000
     3  C    1.403515   2.434640   0.000000
     4  H    2.151362   3.415774   1.084561   0.000000
     5  C    2.441702   1.396446   2.804951   3.889497   0.000000
     6  C    2.424883   2.798383   1.391052   2.154460   2.426160
     7  H    3.426191   2.156434   3.887788   4.972344   1.082875
     8  H    3.412034   3.883279   2.156672   2.494279   3.402124
     9  C    2.816745   2.428476   2.428130   3.412715   1.405139
    10  C    2.483982   1.435647   3.755990   4.630916   2.440301
    11  N    3.554414   2.598591   4.881677   5.702883   3.484579
    12  C    1.431883   2.486658   2.450323   2.655105   3.758382
    13  N    2.595448   3.560034   3.495063   3.447435   4.884892
    14  N    4.231760   3.757303   3.685227   4.546317   2.499024
    15  N    4.936183   4.121030   4.676558   5.630366   2.727535
    16  C    8.493014   7.486119   8.309183   9.247564   6.123365
    17  C    7.105278   6.091825   6.970269   7.936526   4.728533
    18  C    6.313774   5.512262   5.955783   6.848395   4.116777
    19  C    7.178175   6.583920   6.568680   7.319975   5.219603
    20  C    8.586523   7.921590   8.007375   8.757151   6.536742
    21  C    9.144445   8.287944   8.760014   9.608672   6.894103
    22  C    9.566888   9.041471   8.833081   9.469703   7.684693
    23  C    9.385173   9.060505   8.482233   8.983739   7.776395
    24  C    8.142190   7.940349   7.166489   7.617444   6.727464
    25  C    6.963356   6.646914   6.108983   6.693140   5.392102
    26  H   10.616177  10.043495   9.909416  10.555365   8.671937
    27  H   10.306761  10.054550   9.334504   9.759067   8.796686
    28  H    8.224924   8.209092   7.117360   7.419149   7.103692
    29  H    6.006175   5.821581   5.078666   5.625937   4.659524
    30  H    9.184058   8.077896   9.123845  10.100200   6.764280
    31  H    6.744981   5.589722   6.823470   7.850671   4.308896
    32  O   10.496122   9.615753  10.114850  10.955192   8.225428
    33  H   10.956632  10.166983  10.465009  11.244476   8.770578
                    6          7          8          9         10
     6  C    0.000000
     7  H    3.405282   0.000000
     8  H    1.085042   4.290847   0.000000
     9  C    1.403411   2.155154   2.146812   0.000000
    10  C    4.233910   2.658859   5.318689   3.733122   0.000000
    11  N    5.396444   3.451436   6.480998   4.836165   1.163192
    12  C    3.727938   4.639227   4.604948   4.248515   2.900917
    13  N    4.831529   5.713219   5.642793   5.411623   3.665474
    14  N    2.392202   2.751388   2.565349   1.418115   4.939131
    15  N    3.511236   2.454866   3.819986   2.251202   5.029375
    16  C    7.106742   5.425265   7.230165   5.884603   8.040266
    17  C    5.816648   4.046332   6.044400   4.543750   6.679414
    18  C    4.695804   3.732239   4.778669   3.565205   6.366303
    19  C    5.204637   5.020789   4.978826   4.361637   7.585803
    20  C    6.644536   6.209105   6.394107   5.771721   8.836755
    21  C    7.457403   6.351451   7.378751   6.393051   9.008200
    22  C    7.443887   7.468872   7.009597   6.763895  10.051765
    23  C    7.101197   7.751605   6.490411   6.671355  10.205835
    24  C    5.801520   6.853543   5.127794   5.518593   9.165618
    25  C    4.719727   5.476059   4.222431   4.246669   7.830512
    26  H    8.521571   8.388140   8.096505   7.805148  11.004531
    27  H    7.971245   8.811379   7.276386   7.645695  11.232459
    28  H    5.816614   7.378961   4.988773   5.794739   9.514143
    29  H    3.697141   4.924160   3.149305   3.395730   7.085795
    30  H    7.983995   5.950139   8.187888   6.700675   8.470835
    31  H    5.818976   3.452549   6.233524   4.451434   5.978168
    32  O    8.806225   7.638622   8.695732   7.749788  10.286097
    33  H    9.117831   8.269817   8.895677   8.164069  10.928430
                   11         12         13         14         15
    11  N    0.000000
    12  C    3.661362   0.000000
    13  N    4.159664   1.163863   0.000000
    14  N    5.965259   5.662675   6.824671   0.000000
    15  N    5.901087   6.348377   7.505636   1.267307   0.000000
    16  C    8.612564   9.868821  11.005313   4.734243   3.633614
    17  C    7.303486   8.475757   9.610707   3.493497   2.308213
    18  C    7.173749   7.732655   8.892285   2.305514   1.394820
    19  C    8.469890   8.609717   9.772304   2.948411   2.571648
    20  C    9.649714  10.018266  11.181969   4.368551   3.820825
    21  C    9.683927  10.559598  11.716887   5.078121   4.211347
    22  C   10.920045  10.992743  12.149549   5.347012   5.030127
    23  C   11.166041  10.780530  11.913954   5.305435   5.317774
    24  C   10.184347   9.512551  10.629462   4.231341   4.516029
    25  C    8.829225   8.365877   9.506183   2.901019   3.135992
    26  H   11.832241  12.044972  13.204350   6.387088   5.978535
    27  H   12.210981  11.681901  12.799934   6.309466   6.387438
    28  H   10.584855   9.534010  10.609115   4.655956   5.182959
    29  H    8.139511   7.386350   8.513007   2.195697   2.840261
    30  H    8.918076  10.518706  11.630928   5.651862   4.475094
    31  H    6.484093   8.047909   9.146770   3.693777   2.426686
    32  O   10.911680  11.908390  13.063948   6.431683   5.560609
    33  H   11.614085  12.382476  13.544669   6.792207   6.057437
                   16         17         18         19         20
    16  C    0.000000
    17  C    1.395201   0.000000
    18  C    2.453112   1.399376   0.000000
    19  C    2.860662   2.455436   1.448522   0.000000
    20  C    2.455921   2.810073   2.478604   1.440367   0.000000
    21  C    1.384737   2.400599   2.833035   2.486188   1.437209
    22  C    3.753039   4.229161   3.777487   2.467847   1.419094
    23  C    4.897329   5.089320   4.293024   2.845588   2.441649
    24  C    5.100934   4.899635   3.794324   2.445805   2.811409
    25  C    4.279961   3.784605   2.536048   1.420851   2.447476
    26  H    4.113735   4.874151   4.660567   3.461878   2.185343
    27  H    5.857584   6.145464   5.378580   3.931177   3.424594
    28  H    6.162232   5.870324   4.670767   3.423935   3.897510
    29  H    4.916131   4.142803   2.758306   2.153492   3.423009
    30  H    1.084402   2.167760   3.435764   3.945032   3.433135
    31  H    2.153967   1.084723   2.126371   3.425354   3.894681
    32  O    2.332551   3.614934   4.188265   3.744027   2.449160
    33  H    3.161377   4.328090   4.662789   3.928009   2.502123
                   21         22         23         24         25
    21  C    0.000000
    22  C    2.487813   0.000000
    23  C    3.755422   1.379888   0.000000
    24  C    4.248586   2.407301   1.408619   0.000000
    25  C    3.765398   2.793757   2.427450   1.383099   0.000000
    26  H    2.734705   1.087763   2.118243   3.382492   3.881086
    27  H    4.628676   2.142396   1.085607   2.170591   3.409205
    28  H    5.334675   3.389717   2.163783   1.086105   2.137711
    29  H    4.633277   3.872772   3.405856   2.140234   1.079025
    30  H    2.134689   4.620393   5.851246   6.153750   5.364026
    31  H    3.385231   5.313771   6.146368   5.861432   4.655422
    32  O    1.356875   2.899732   4.279423   5.106748   4.896114
    33  H    1.932289   2.437904   3.777631   4.811743   4.867949
                   26         27         28         29         30
    26  H    0.000000
    27  H    2.433306   0.000000
    28  H    4.272185   2.497230   0.000000
    29  H    4.960024   4.300758   2.460635   0.000000
    30  H    4.796804   6.758174   7.223329   5.988742   0.000000
    31  H    5.944968   7.210997   6.782243   4.833524   2.503692
    32  O    2.598955   4.926122   6.170122   5.846966   2.534613
    33  H    1.837053   4.259308   5.823507   5.894857   3.486233
                   31         32         33
    31  H    0.000000
    32  O    4.484564   0.000000
    33  H    5.278081   0.965189   0.000000
 Stoichiometry    C18H10N4O
 Framework group  C1[X(C18H10N4O)]
 Deg. of freedom    93
 Full point group                 C1      NOp   1
 Largest Abelian subgroup         C1      NOp   1
 Largest concise Abelian subgroup C1      NOp   1
                         Standard orientation:                         
 ---------------------------------------------------------------------
 Center     Atomic      Atomic             Coordinates (Angstroms)
 Number     Number       Type             X           Y           Z
 ---------------------------------------------------------------------
      1          6           0       -4.555004   -0.630884   -0.034400
      2          6           0       -3.891662    0.623249    0.038698
      3          6           0       -3.789268   -1.805121   -0.102738
      4          1           0       -4.295095   -2.762880   -0.158496
      5          6           0       -2.496370    0.679982    0.040188
      6          6           0       -2.399735   -1.740348   -0.097355
      7          1           0       -1.987850    1.634404    0.095895
      8          1           0       -1.803599   -2.645515   -0.148459
      9          6           0       -1.741172   -0.502901   -0.029671
     10          6           0       -4.638113    1.847278    0.113834
     11          7           0       -5.215125    2.855452    0.174317
     12          6           0       -5.984234   -0.717948   -0.037471
     13          7           0       -7.143248   -0.823937   -0.043037
     14          7           0       -0.323960   -0.553420   -0.026710
     15          7           0        0.228559    0.587075   -0.034490
     16          6           0        3.381357    2.392970   -0.076426
     17          6           0        2.036495    2.021634   -0.069949
     18          6           0        1.619828    0.686370   -0.028587
     19          6           0        2.617995   -0.362508    0.013062
     20          6           0        4.006788    0.019319    0.002104
     21          6           0        4.358267    1.412260   -0.039684
     22          6           0        5.004927   -0.988857    0.035684
     23          6           0        4.674706   -2.327625    0.088072
     24          6           0        3.317505   -2.704276    0.106710
     25          6           0        2.317059   -1.750008    0.068730
     26          1           0        6.060606   -0.727205    0.018152
     27          1           0        5.454965   -3.082014    0.113282
     28          1           0        3.050753   -3.756193    0.150733
     29          1           0        1.280291   -2.048844    0.078979
     30          1           0        3.679648    3.435092   -0.106945
     31          1           0        1.262815    2.781400   -0.098203
     32          8           0        5.646687    1.837692   -0.049226
     33          1           0        6.264175    1.098528    0.013501
 ---------------------------------------------------------------------
 Rotational constants (GHZ):      0.6774957      0.1071078      0.0925396
 Leave Link  202 at Sat Feb  5 14:01:24 2022, MaxMem=  6553600000 cpu:         2.0
 (Enter /home/madghost/g09/l301.exe)
 General basis read from cards:  (5D, 7F)
 Centers:       4      7      8     26     27     28     29     30     31     33
 S 3 1.00
     Exponent=  1.8731136960D+01 Coefficients=  3.3494604340D-02
     Exponent=  2.8253943650D+00 Coefficients=  2.3472695350D-01
     Exponent=  6.4012169230D-01 Coefficients=  8.1375732610D-01
 S 1 1.00
     Exponent=  1.6127775880D-01 Coefficients=  1.0000000000D+00
 S 1 1.00
     Exponent=  3.6000000000D-02 Coefficients=  1.0000000000D+00
 P 1 1.00
     Exponent=  1.1000000000D+00 Coefficients=  1.0000000000D+00
 ****
 Centers:       1      2      3      5      6      9     10     12     16     17
 Centers:      18     19     20     21     22     23     24     25
 S 6 1.00
     Exponent=  3.0475248800D+03 Coefficients=  1.8347371320D-03
     Exponent=  4.5736951800D+02 Coefficients=  1.4037322810D-02
     Exponent=  1.0394868500D+02 Coefficients=  6.8842622260D-02
     Exponent=  2.9210155300D+01 Coefficients=  2.3218444320D-01
     Exponent=  9.2866629600D+00 Coefficients=  4.6794134840D-01
     Exponent=  3.1639269600D+00 Coefficients=  3.6231198530D-01
 SP 3 1.00
     Exponent=  7.8682723500D+00 Coefficients= -1.1933241980D-01  6.8999066590D-02
     Exponent=  1.8812885400D+00 Coefficients= -1.6085415170D-01  3.1642396100D-01
     Exponent=  5.4424925800D-01 Coefficients=  1.1434564380D+00  7.4430829090D-01
 SP 1 1.00
     Exponent=  1.6871447820D-01 Coefficients=  1.0000000000D+00  1.0000000000D+00
 SP 1 1.00
     Exponent=  4.3800000000D-02 Coefficients=  1.0000000000D+00  1.0000000000D+00
 D 1 1.00
     Exponent=  8.0000000000D-01 Coefficients=  1.0000000000D+00
 ****
 Centers:      11     13     14     15
 S 6 1.00
     Exponent=  4.1735114600D+03 Coefficients=  1.8347721600D-03
     Exponent=  6.2745791100D+02 Coefficients=  1.3994627000D-02
     Exponent=  1.4290209300D+02 Coefficients=  6.8586551810D-02
     Exponent=  4.0234329300D+01 Coefficients=  2.3224087300D-01
     Exponent=  1.2820212900D+01 Coefficients=  4.6906994810D-01
     Exponent=  4.3904370100D+00 Coefficients=  3.6045519910D-01
 SP 3 1.00
     Exponent=  1.1626361860D+01 Coefficients= -1.1496118170D-01  6.7579743880D-02
     Exponent=  2.7162798070D+00 Coefficients= -1.6911747860D-01  3.2390729590D-01
     Exponent=  7.7221839660D-01 Coefficients=  1.1458519470D+00  7.4089513980D-01
 SP 1 1.00
     Exponent=  2.1203149750D-01 Coefficients=  1.0000000000D+00  1.0000000000D+00
 SP 1 1.00
     Exponent=  6.3900000000D-02 Coefficients=  1.0000000000D+00  1.0000000000D+00
 D 1 1.00
     Exponent=  8.0000000000D-01 Coefficients=  1.0000000000D+00
 ****
 Centers:      32
 S 6 1.00
     Exponent=  5.4846716600D+03 Coefficients=  1.8310744300D-03
     Exponent=  8.2523494600D+02 Coefficients=  1.3950172200D-02
     Exponent=  1.8804695800D+02 Coefficients=  6.8445078100D-02
     Exponent=  5.2964500000D+01 Coefficients=  2.3271433600D-01
     Exponent=  1.6897570400D+01 Coefficients=  4.7019289800D-01
     Exponent=  5.7996353400D+00 Coefficients=  3.5852085300D-01
 SP 3 1.00
     Exponent=  1.5539616250D+01 Coefficients= -1.1077754950D-01  7.0874268230D-02
     Exponent=  3.5999335860D+00 Coefficients= -1.4802626270D-01  3.3975283910D-01
     Exponent=  1.0137617500D+00 Coefficients=  1.1307670150D+00  7.2715857730D-01
 SP 1 1.00
     Exponent=  2.7000582260D-01 Coefficients=  1.0000000000D+00  1.0000000000D+00
 SP 1 1.00
     Exponent=  8.4500000000D-02 Coefficients=  1.0000000000D+00  1.0000000000D+00
 D 1 1.00
     Exponent=  8.0000000000D-01 Coefficients=  1.0000000000D+00
 ****
 Ernie: Thresh=  0.10000D-02 Tol=  0.10000D-05 Strict=F.
 There are   497 symmetry adapted cartesian basis functions of A   symmetry.
 There are   474 symmetry adapted basis functions of A   symmetry.
   474 basis functions,   816 primitive gaussians,   497 cartesian basis functions
    77 alpha electrons       77 beta electrons
       nuclear repulsion energy      1582.4192277364 Hartrees.
 IExCor=  402 DFT=T Ex+Corr=B3LYP ExCW=0 ScaHFX=  0.200000
 ScaDFX=  0.800000  0.720000  1.000000  0.810000 ScalE2=  1.000000  1.000000
 IRadAn=      5 IRanWt=     -1 IRanGd=            0 ICorTp=0 IEmpDi=  4
 NAtoms=   33 NActive=   33 NUniq=   33 SFac= 1.00D+00 NAtFMM=   60 NAOKFM=F Big=F
 Integral buffers will be    131072 words long.
 Raffenetti 2 integral format.
 Two-electron integral symmetry is turned on.
 Leave Link  301 at Sat Feb  5 14:01:26 2022, MaxMem=  6553600000 cpu:         1.1
 (Enter /home/madghost/g09/l302.exe)
 NPDir=0 NMtPBC=     1 NCelOv=     1 NCel=       1 NClECP=     1 NCelD=      1
         NCelK=      1 NCelE2=     1 NClLst=     1 CellRange=     0.0.
 One-electron integrals computed using PRISM.
 NBasis=   474 RedAO= T EigKep=  1.01D-06  NBF=   474
 NBsUse=   469 1.00D-06 EigRej=  7.32D-07 NBFU=   469
 Precomputing XC quadrature grid using
 IXCGrd= 4 IRadAn=           5 IRanWt=          -1 IRanGd=           0 AccXCQ= 0.00D+00.
 Generated NRdTot=       0 NPtTot=           0 NUsed=           0 NTot=          32
 NSgBfM=   487   487   487   487   487 MxSgAt=    33 MxSgA2=    33.
 Leave Link  302 at Sat Feb  5 14:01:31 2022, MaxMem=  6553600000 cpu:        82.9
 (Enter /home/madghost/g09/l303.exe)
 DipDrv:  MaxL=1.
 Leave Link  303 at Sat Feb  5 14:01:32 2022, MaxMem=  6553600000 cpu:         5.0
 (Enter /home/madghost/g09/l401.exe)
 ExpMin= 3.60D-02 ExpMax= 5.48D+03 ExpMxC= 8.25D+02 IAcc=3 IRadAn=         5 AccDes= 0.00D+00
 Harris functional with IExCor=  402 and IRadAn=       5 diagonalized for initial guess.
 HarFok:  IExCor=  402 AccDes= 0.00D+00 IRadAn=         5 IDoV= 1 UseB2=F ITyADJ=14
 ICtDFT=  3500011 ScaDFX=  1.000000  1.000000  1.000000  1.000000
 FoFCou: FMM=F IPFlag=           0 FMFlag=      100000 FMFlg1=           0
         NFxFlg=           0 DoJE=T BraDBF=F KetDBF=T FulRan=T
         wScrn=  0.000000 ICntrl=     500 IOpCl=  0 I1Cent=   200000004 NGrid=           0
         NMat0=    1 NMatS0=      1 NMatT0=    0 NMatD0=    1 NMtDS0=    0 NMtDT0=    0
 Petite list used in FoFCou.
 Harris En= -986.038122011884    
 JPrj=0 DoOrth=F DoCkMO=F.
 Leave Link  401 at Sat Feb  5 14:01:39 2022, MaxMem=  6553600000 cpu:       124.8
 (Enter /home/madghost/g09/l502.exe)
 Closed shell SCF:
 Using DIIS extrapolation, IDIIS=  1040.
 Integral symmetry usage will be decided dynamically.
 Keep R1 ints in memory in canonical form, NReq=6399149529.
 IVT=      775182 IEndB=      775182 NGot=  6553600000 MDV=   216203219
 LenX=   216203219 LenY=   215955713
 Requested convergence on RMS density matrix=1.00D-08 within 128 cycles.
 Requested convergence on MAX density matrix=1.00D-06.
 Requested convergence on             energy=1.00D-06.
 No special actions if energy rises.
 FoFCou: FMM=F IPFlag=           0 FMFlag=           0 FMFlg1=           0
         NFxFlg=           0 DoJE=F BraDBF=F KetDBF=F FulRan=T
         wScrn=  0.000000 ICntrl=     600 IOpCl=  0 I1Cent=           0 NGrid=           0
         NMat0=    1 NMatS0= 112575 NMatT0=    0 NMatD0=    1 NMtDS0=    0 NMtDT0=    0
 Symmetry not used in FoFCou.

 Cycle   1  Pass 1  IDiag  1:
 E= -985.766256074742    
 DIIS: error= 2.52D-02 at cycle   1 NSaved=   1.
 NSaved= 1 IEnMin= 1 EnMin= -985.766256074742     IErMin= 1 ErrMin= 2.52D-02
 ErrMax= 2.52D-02  0.00D+00 EMaxC= 1.00D-01 BMatC= 3.45D-01 BMatP= 3.45D-01
 IDIUse=3 WtCom= 7.48D-01 WtEn= 2.52D-01
 Coeff-Com:  0.100D+01
 Coeff-En:   0.100D+01
 Coeff:      0.100D+01
 Gap=     0.176 Goal=   None    Shift=    0.000
 GapD=    0.176 DampG=1.000 DampE=0.500 DampFc=0.5000 IDamp=-1.
 Damping current iteration by 5.00D-01
 RMSDP=2.69D-02 MaxDP=1.25D+00              OVMax= 2.73D-01

 Cycle   2  Pass 1  IDiag  1:
 E= -985.877430928757     Delta-E=       -0.111174854015 Rises=F Damp=T
 DIIS: error= 1.47D-02 at cycle   2 NSaved=   2.
 NSaved= 2 IEnMin= 2 EnMin= -985.877430928757     IErMin= 2 ErrMin= 1.47D-02
 ErrMax= 1.47D-02  0.00D+00 EMaxC= 1.00D-01 BMatC= 6.19D-02 BMatP= 3.45D-01
 IDIUse=3 WtCom= 8.53D-01 WtEn= 1.47D-01
 Coeff-Com:  0.199D+00 0.801D+00
 Coeff-En:   0.300D+00 0.700D+00
 Coeff:      0.214D+00 0.786D+00
 Gap=     0.130 Goal=   None    Shift=    0.000
 RMSDP=2.51D-02 MaxDP=2.00D+00 DE=-1.11D-01 OVMax= 2.35D-01

 Cycle   3  Pass 1  IDiag  1:
 E= -986.036561292200     Delta-E=       -0.159130363443 Rises=F Damp=F
 DIIS: error= 2.20D-02 at cycle   3 NSaved=   3.
 NSaved= 3 IEnMin= 3 EnMin= -986.036561292200     IErMin= 2 ErrMin= 1.47D-02
 ErrMax= 2.20D-02  0.00D+00 EMaxC= 1.00D-01 BMatC= 9.73D-02 BMatP= 6.19D-02
 IDIUse=2 WtCom= 0.00D+00 WtEn= 1.00D+00
 Coeff-En:   0.000D+00 0.808D-01 0.919D+00
 Coeff:      0.000D+00 0.808D-01 0.919D+00
 Gap=     0.165 Goal=   None    Shift=    0.000
 RMSDP=1.29D-02 MaxDP=9.84D-01 DE=-1.59D-01 OVMax= 2.48D-01

 Cycle   4  Pass 1  IDiag  1:
 E= -985.586910519325     Delta-E=        0.449650772875 Rises=F Damp=F
 DIIS: error= 4.76D-02 at cycle   4 NSaved=   4.
 NSaved= 4 IEnMin= 3 EnMin= -986.036561292200     IErMin= 2 ErrMin= 1.47D-02
 ErrMax= 4.76D-02  0.00D+00 EMaxC= 1.00D-01 BMatC= 5.60D-01 BMatP= 6.19D-02
 IDIUse=2 WtCom= 0.00D+00 WtEn= 1.00D+00
 Coeff-En:   0.000D+00 0.000D+00 0.782D+00 0.218D+00
 Coeff:      0.000D+00 0.000D+00 0.782D+00 0.218D+00
 Gap=     0.107 Goal=   None    Shift=    0.000
 RMSDP=6.52D-03 MaxDP=5.24D-01 DE= 4.50D-01 OVMax= 1.37D-01

 Cycle   5  Pass 1  IDiag  1:
 E= -986.091437280355     Delta-E=       -0.504526761030 Rises=F Damp=F
 DIIS: error= 1.40D-02 at cycle   5 NSaved=   5.
 NSaved= 5 IEnMin= 5 EnMin= -986.091437280355     IErMin= 5 ErrMin= 1.40D-02
 ErrMax= 1.40D-02  0.00D+00 EMaxC= 1.00D-01 BMatC= 4.31D-02 BMatP= 6.19D-02
 IDIUse=3 WtCom= 8.60D-01 WtEn= 1.40D-01
 Coeff-Com:  0.110D-01 0.136D-03 0.347D+00-0.446D-01 0.686D+00
 Coeff-En:   0.000D+00 0.000D+00 0.354D+00 0.000D+00 0.646D+00
 Coeff:      0.947D-02 0.117D-03 0.348D+00-0.384D-01 0.681D+00
 Gap=     0.114 Goal=   None    Shift=    0.000
 RMSDP=2.60D-03 MaxDP=1.57D-01 DE=-5.05D-01 OVMax= 4.97D-02

 Cycle   6  Pass 1  IDiag  1:
 E= -986.132502178518     Delta-E=       -0.041064898163 Rises=F Damp=F
 DIIS: error= 1.32D-03 at cycle   6 NSaved=   6.
 NSaved= 6 IEnMin= 6 EnMin= -986.132502178518     IErMin= 6 ErrMin= 1.32D-03
 ErrMax= 1.32D-03  0.00D+00 EMaxC= 1.00D-01 BMatC= 2.65D-04 BMatP= 4.31D-02
 IDIUse=3 WtCom= 9.87D-01 WtEn= 1.32D-02
 Coeff-Com:  0.208D-03 0.172D-02 0.151D+00-0.487D-01 0.409D+00 0.487D+00
 Coeff-En:   0.000D+00 0.000D+00 0.000D+00 0.000D+00 0.000D+00 0.100D+01
 Coeff:      0.205D-03 0.169D-02 0.149D+00-0.481D-01 0.404D+00 0.493D+00
 Gap=     0.114 Goal=   None    Shift=    0.000
 RMSDP=5.21D-04 MaxDP=3.97D-02 DE=-4.11D-02 OVMax= 6.85D-03

 Cycle   7  Pass 1  IDiag  1:
 E= -986.132785919914     Delta-E=       -0.000283741396 Rises=F Damp=F
 DIIS: error= 2.85D-04 at cycle   7 NSaved=   7.
 NSaved= 7 IEnMin= 7 EnMin= -986.132785919914     IErMin= 7 ErrMin= 2.85D-04
 ErrMax= 2.85D-04  0.00D+00 EMaxC= 1.00D-01 BMatC= 3.20D-05 BMatP= 2.65D-04
 IDIUse=3 WtCom= 9.97D-01 WtEn= 2.85D-03
 Coeff-Com: -0.495D-03 0.167D-02 0.656D-01-0.274D-01 0.194D+00 0.298D+00
 Coeff-Com:  0.469D+00
 Coeff-En:   0.000D+00 0.000D+00 0.000D+00 0.000D+00 0.000D+00 0.439D-01
 Coeff-En:   0.956D+00
 Coeff:     -0.493D-03 0.167D-02 0.655D-01-0.274D-01 0.193D+00 0.297D+00
 Coeff:      0.470D+00
 Gap=     0.114 Goal=   None    Shift=    0.000
 RMSDP=1.10D-04 MaxDP=9.26D-03 DE=-2.84D-04 OVMax= 1.68D-03

 Cycle   8  Pass 1  IDiag  1:
 E= -986.132814371730     Delta-E=       -0.000028451816 Rises=F Damp=F
 DIIS: error= 1.09D-04 at cycle   8 NSaved=   8.
 NSaved= 8 IEnMin= 8 EnMin= -986.132814371730     IErMin= 8 ErrMin= 1.09D-04
 ErrMax= 1.09D-04  0.00D+00 EMaxC= 1.00D-01 BMatC= 4.21D-06 BMatP= 3.20D-05
 IDIUse=3 WtCom= 9.99D-01 WtEn= 1.09D-03
 Coeff-Com: -0.994D-04 0.351D-03 0.174D-01-0.875D-02 0.515D-01 0.104D+00
 Coeff-Com:  0.275D+00 0.561D+00
 Coeff-En:   0.000D+00 0.000D+00 0.000D+00 0.000D+00 0.000D+00 0.000D+00
 Coeff-En:   0.000D+00 0.100D+01
 Coeff:     -0.993D-04 0.350D-03 0.173D-01-0.874D-02 0.515D-01 0.104D+00
 Coeff:      0.274D+00 0.561D+00
 Gap=     0.114 Goal=   None    Shift=    0.000
 RMSDP=3.93D-05 MaxDP=2.29D-03 DE=-2.85D-05 OVMax= 1.20D-03

 Cycle   9  Pass 1  IDiag  1:
 E= -986.132817836701     Delta-E=       -0.000003464971 Rises=F Damp=F
 DIIS: error= 4.49D-05 at cycle   9 NSaved=   9.
 NSaved= 9 IEnMin= 9 EnMin= -986.132817836701     IErMin= 9 ErrMin= 4.49D-05
 ErrMax= 4.49D-05  0.00D+00 EMaxC= 1.00D-01 BMatC= 9.01D-07 BMatP= 4.21D-06
 IDIUse=1 WtCom= 1.00D+00 WtEn= 0.00D+00
 Coeff-Com:  0.852D-04-0.294D-03 0.360D-02-0.223D-02 0.939D-02 0.308D-01
 Coeff-Com:  0.118D+00 0.394D+00 0.447D+00
 Coeff:      0.852D-04-0.294D-03 0.360D-02-0.223D-02 0.939D-02 0.308D-01
 Coeff:      0.118D+00 0.394D+00 0.447D+00
 Gap=     0.114 Goal=   None    Shift=    0.000
 RMSDP=1.50D-05 MaxDP=1.01D-03 DE=-3.46D-06 OVMax= 3.26D-04

 Cycle  10  Pass 1  IDiag  1:
 E= -986.132818658207     Delta-E=       -0.000000821507 Rises=F Damp=F
 DIIS: error= 1.33D-05 at cycle  10 NSaved=  10.
 NSaved=10 IEnMin=10 EnMin= -986.132818658207     IErMin=10 ErrMin= 1.33D-05
 ErrMax= 1.33D-05  0.00D+00 EMaxC= 1.00D-01 BMatC= 6.43D-08 BMatP= 9.01D-07
 IDIUse=1 WtCom= 1.00D+00 WtEn= 0.00D+00
 Coeff-Com:  0.822D-04-0.267D-03-0.952D-04-0.141D-03-0.136D-02 0.473D-02
 Coeff-Com:  0.324D-01 0.165D+00 0.269D+00 0.530D+00
 Coeff:      0.822D-04-0.267D-03-0.952D-04-0.141D-03-0.136D-02 0.473D-02
 Coeff:      0.324D-01 0.165D+00 0.269D+00 0.530D+00
 Gap=     0.114 Goal=   None    Shift=    0.000
 RMSDP=5.64D-06 MaxDP=2.64D-04 DE=-8.22D-07 OVMax= 1.43D-04

 Cycle  11  Pass 1  IDiag  1:
 E= -986.132818724987     Delta-E=       -0.000000066780 Rises=F Damp=F
 DIIS: error= 4.74D-06 at cycle  11 NSaved=  11.
 NSaved=11 IEnMin=11 EnMin= -986.132818724987     IErMin=11 ErrMin= 4.74D-06
 ErrMax= 4.74D-06  0.00D+00 EMaxC= 1.00D-01 BMatC= 5.89D-09 BMatP= 6.43D-08
 IDIUse=1 WtCom= 1.00D+00 WtEn= 0.00D+00
 Coeff-Com:  0.269D-04-0.816D-04-0.507D-03 0.170D-03-0.182D-02-0.832D-03
 Coeff-Com:  0.351D-02 0.449D-01 0.892D-01 0.292D+00 0.574D+00
 Coeff:      0.269D-04-0.816D-04-0.507D-03 0.170D-03-0.182D-02-0.832D-03
 Coeff:      0.351D-02 0.449D-01 0.892D-01 0.292D+00 0.574D+00
 Gap=     0.114 Goal=   None    Shift=    0.000
 RMSDP=1.78D-06 MaxDP=1.19D-04 DE=-6.68D-08 OVMax= 3.72D-05

 Cycle  12  Pass 1  IDiag  1:
 E= -986.132818730445     Delta-E=       -0.000000005458 Rises=F Damp=F
 DIIS: error= 2.10D-06 at cycle  12 NSaved=  12.
 NSaved=12 IEnMin=12 EnMin= -986.132818730445     IErMin=12 ErrMin= 2.10D-06
 ErrMax= 2.10D-06  0.00D+00 EMaxC= 1.00D-01 BMatC= 1.25D-09 BMatP= 5.89D-09
 IDIUse=1 WtCom= 1.00D+00 WtEn= 0.00D+00
 Coeff-Com:  0.300D-05-0.747D-05-0.320D-03 0.125D-03-0.957D-03-0.103D-02
 Coeff-Com: -0.193D-02 0.729D-02 0.195D-01 0.113D+00 0.355D+00 0.509D+00
 Coeff:      0.300D-05-0.747D-05-0.320D-03 0.125D-03-0.957D-03-0.103D-02
 Coeff:     -0.193D-02 0.729D-02 0.195D-01 0.113D+00 0.355D+00 0.509D+00
 Gap=     0.114 Goal=   None    Shift=    0.000
 RMSDP=9.22D-07 MaxDP=7.91D-05 DE=-5.46D-09 OVMax= 1.57D-05

 Cycle  13  Pass 1  IDiag  1:
 E= -986.132818731718     Delta-E=       -0.000000001273 Rises=F Damp=F
 DIIS: error= 7.83D-07 at cycle  13 NSaved=  13.
 NSaved=13 IEnMin=13 EnMin= -986.132818731718     IErMin=13 ErrMin= 7.83D-07
 ErrMax= 7.83D-07  0.00D+00 EMaxC= 1.00D-01 BMatC= 2.20D-10 BMatP= 1.25D-09
 IDIUse=1 WtCom= 1.00D+00 WtEn= 0.00D+00
 Coeff-Com: -0.360D-05 0.789D-05-0.167D-03 0.673D-04-0.427D-03-0.603D-03
 Coeff-Com: -0.193D-02-0.175D-02-0.489D-03 0.343D-01 0.160D+00 0.332D+00
 Coeff-Com:  0.479D+00
 Coeff:     -0.360D-05 0.789D-05-0.167D-03 0.673D-04-0.427D-03-0.603D-03
 Coeff:     -0.193D-02-0.175D-02-0.489D-03 0.343D-01 0.160D+00 0.332D+00
 Coeff:      0.479D+00
 Gap=     0.114 Goal=   None    Shift=    0.000
 RMSDP=2.68D-07 MaxDP=1.47D-05 DE=-1.27D-09 OVMax= 6.77D-06

 Cycle  14  Pass 1  IDiag  1:
 E= -986.132818731975     Delta-E=       -0.000000000256 Rises=F Damp=F
 DIIS: error= 2.45D-07 at cycle  14 NSaved=  14.
 NSaved=14 IEnMin=14 EnMin= -986.132818731975     IErMin=14 ErrMin= 2.45D-07
 ErrMax= 2.45D-07  0.00D+00 EMaxC= 1.00D-01 BMatC= 3.04D-11 BMatP= 2.20D-10
 IDIUse=1 WtCom= 1.00D+00 WtEn= 0.00D+00
 Coeff-Com: -0.360D-05 0.597D-05-0.188D-04 0.735D-05-0.591D-05-0.280D-04
 Coeff-Com: -0.448D-03-0.198D-02-0.424D-02-0.470D-02 0.136D-01 0.788D-01
 Coeff-Com:  0.263D+00 0.656D+00
 Coeff:     -0.360D-05 0.597D-05-0.188D-04 0.735D-05-0.591D-05-0.280D-04
 Coeff:     -0.448D-03-0.198D-02-0.424D-02-0.470D-02 0.136D-01 0.788D-01
 Coeff:      0.263D+00 0.656D+00
 Gap=     0.114 Goal=   None    Shift=    0.000
 RMSDP=1.12D-07 MaxDP=9.54D-06 DE=-2.56D-10 OVMax= 1.70D-06

 Cycle  15  Pass 1  IDiag  1:
 E= -986.132818731978     Delta-E=       -0.000000000004 Rises=F Damp=F
 DIIS: error= 8.68D-08 at cycle  15 NSaved=  15.
 NSaved=15 IEnMin=15 EnMin= -986.132818731978     IErMin=15 ErrMin= 8.68D-08
 ErrMax= 8.68D-08  0.00D+00 EMaxC= 1.00D-01 BMatC= 4.06D-12 BMatP= 3.04D-11
 IDIUse=1 WtCom= 1.00D+00 WtEn= 0.00D+00
 Coeff-Com: -0.210D-05 0.344D-05 0.175D-05-0.140D-05 0.328D-04 0.323D-04
 Coeff-Com: -0.113D-03-0.110D-02-0.275D-02-0.646D-02-0.799D-02 0.167D-01
 Coeff-Com:  0.114D+00 0.427D+00 0.460D+00
 Coeff:     -0.210D-05 0.344D-05 0.175D-05-0.140D-05 0.328D-04 0.323D-04
 Coeff:     -0.113D-03-0.110D-02-0.275D-02-0.646D-02-0.799D-02 0.167D-01
 Coeff:      0.114D+00 0.427D+00 0.460D+00
 Gap=     0.114 Goal=   None    Shift=    0.000
 RMSDP=4.17D-08 MaxDP=2.35D-06 DE=-3.64D-12 OVMax= 5.48D-07

 Cycle  16  Pass 1  IDiag  1:
 E= -986.132818731891     Delta-E=        0.000000000087 Rises=F Damp=F
 DIIS: error= 2.66D-08 at cycle  16 NSaved=  16.
 NSaved=16 IEnMin=15 EnMin= -986.132818731978     IErMin=16 ErrMin= 2.66D-08
 ErrMax= 2.66D-08  0.00D+00 EMaxC= 1.00D-01 BMatC= 2.82D-13 BMatP= 4.06D-12
 IDIUse=1 WtCom= 1.00D+00 WtEn= 0.00D+00
 Coeff-Com: -0.888D-06 0.164D-05 0.145D-05-0.107D-05 0.157D-04 0.131D-04
 Coeff-Com: -0.422D-04-0.469D-03-0.122D-02-0.321D-02-0.586D-02 0.250D-02
 Coeff-Com:  0.400D-01 0.186D+00 0.263D+00 0.519D+00
 Coeff:     -0.888D-06 0.164D-05 0.145D-05-0.107D-05 0.157D-04 0.131D-04
 Coeff:     -0.422D-04-0.469D-03-0.122D-02-0.321D-02-0.586D-02 0.250D-02
 Coeff:      0.400D-01 0.186D+00 0.263D+00 0.519D+00
 Gap=     0.114 Goal=   None    Shift=    0.000
 RMSDP=1.47D-08 MaxDP=9.78D-07 DE= 8.73D-11 OVMax= 2.07D-07

 Cycle  17  Pass 1  IDiag  1:
 E= -986.132818731963     Delta-E=       -0.000000000072 Rises=F Damp=F
 DIIS: error= 1.21D-08 at cycle  17 NSaved=  17.
 NSaved=17 IEnMin=15 EnMin= -986.132818731978     IErMin=17 ErrMin= 1.21D-08
 ErrMax= 1.21D-08  0.00D+00 EMaxC= 1.00D-01 BMatC= 8.44D-14 BMatP= 2.82D-13
 IDIUse=1 WtCom= 1.00D+00 WtEn= 0.00D+00
 Coeff-Com: -0.274D-06 0.612D-06 0.904D-06-0.599D-06 0.586D-05 0.463D-05
 Coeff-Com: -0.994D-05-0.133D-03-0.396D-03-0.112D-02-0.268D-02-0.651D-03
 Coeff-Com:  0.964D-02 0.620D-01 0.108D+00 0.367D+00 0.458D+00
 Coeff:     -0.274D-06 0.612D-06 0.904D-06-0.599D-06 0.586D-05 0.463D-05
 Coeff:     -0.994D-05-0.133D-03-0.396D-03-0.112D-02-0.268D-02-0.651D-03
 Coeff:      0.964D-02 0.620D-01 0.108D+00 0.367D+00 0.458D+00
 Gap=     0.114 Goal=   None    Shift=    0.000
 RMSDP=1.14D-08 MaxDP=9.14D-07 DE=-7.19D-11 OVMax= 8.50D-08

 Cycle  18  Pass 1  IDiag  1:
 E= -986.132818732029     Delta-E=       -0.000000000066 Rises=F Damp=F
 DIIS: error= 4.99D-09 at cycle  18 NSaved=  18.
 NSaved=18 IEnMin=18 EnMin= -986.132818732029     IErMin=18 ErrMin= 4.99D-09
 ErrMax= 4.99D-09  0.00D+00 EMaxC= 1.00D-01 BMatC= 5.86D-15 BMatP= 8.44D-14
 IDIUse=1 WtCom= 1.00D+00 WtEn= 0.00D+00
 Coeff-Com: -0.472D-07 0.136D-06 0.426D-06-0.222D-06 0.161D-05 0.133D-05
 Coeff-Com: -0.834D-06-0.179D-04-0.843D-04-0.253D-03-0.789D-03-0.506D-03
 Coeff-Com:  0.119D-02 0.143D-01 0.279D-01 0.130D+00 0.242D+00 0.586D+00
 Coeff:     -0.472D-07 0.136D-06 0.426D-06-0.222D-06 0.161D-05 0.133D-05
 Coeff:     -0.834D-06-0.179D-04-0.843D-04-0.253D-03-0.789D-03-0.506D-03
 Coeff:      0.119D-02 0.143D-01 0.279D-01 0.130D+00 0.242D+00 0.586D+00
 Gap=     0.114 Goal=   None    Shift=    0.000
 RMSDP=7.84D-09 MaxDP=6.99D-07 DE=-6.64D-11 OVMax= 3.11D-08

 SCF Done:  E(RB3LYP) =  -986.132818732     A.U. after   18 cycles
            NFock= 18  Conv=0.78D-08     -V/T= 2.0070
 KE= 9.792601219413D+02 PE=-5.454708116037D+03 EE= 1.906895947627D+03
 Leave Link  502 at Sat Feb  5 14:09:06 2022, MaxMem=  6553600000 cpu:      3723.6
 (Enter /home/madghost/g09/l601.exe)
 Copying SCF densities to generalized density rwf, IOpCl= 0 IROHF=0.

 **********************************************************************

            Population analysis using the SCF density.

 **********************************************************************

 Orbital symmetries:
       Occupied  (A) (A) (A) (A) (A) (A) (A) (A) (A) (A) (A) (A)
                 (A) (A) (A) (A) (A) (A) (A) (A) (A) (A) (A) (A)
                 (A) (A) (A) (A) (A) (A) (A) (A) (A) (A) (A) (A)
                 (A) (A) (A) (A) (A) (A) (A) (A) (A) (A) (A) (A)
                 (A) (A) (A) (A) (A) (A) (A) (A) (A) (A) (A) (A)
                 (A) (A) (A) (A) (A) (A) (A) (A) (A) (A) (A) (A)
                 (A) (A) (A) (A) (A)
       Virtual   (A) (A) (A) (A) (A) (A) (A) (A) (A) (A) (A) (A)
                 (A) (A) (A) (A) (A) (A) (A) (A) (A) (A) (A) (A)
                 (A) (A) (A) (A) (A) (A) (A) (A) (A) (A) (A) (A)
                 (A) (A) (A) (A) (A) (A) (A) (A) (A) (A) (A) (A)
                 (A) (A) (A) (A) (A) (A) (A) (A) (A) (A) (A) (A)
                 (A) (A) (A) (A) (A) (A) (A) (A) (A) (A) (A) (A)
                 (A) (A) (A) (A) (A) (A) (A) (A) (A) (A) (A) (A)
                 (A) (A) (A) (A) (A) (A) (A) (A) (A) (A) (A) (A)
                 (A) (A) (A) (A) (A) (A) (A) (A) (A) (A) (A) (A)
                 (A) (A) (A) (A) (A) (A) (A) (A) (A) (A) (A) (A)
                 (A) (A) (A) (A) (A) (A) (A) (A) (A) (A) (A) (A)
                 (A) (A) (A) (A) (A) (A) (A) (A) (A) (A) (A) (A)
                 (A) (A) (A) (A) (A) (A) (A) (A) (A) (A) (A) (A)
                 (A) (A) (A) (A) (A) (A) (A) (A) (A) (A) (A) (A)
                 (A) (A) (A) (A) (A) (A) (A) (A) (A) (A) (A) (A)
                 (A) (A) (A) (A) (A) (A) (A) (A) (A) (A) (A) (A)
                 (A) (A) (A) (A) (A) (A) (A) (A) (A) (A) (A) (A)
                 (A) (A) (A) (A) (A) (A) (A) (A) (A) (A) (A) (A)
                 (A) (A) (A) (A) (A) (A) (A) (A) (A) (A) (A) (A)
                 (A) (A) (A) (A) (A) (A) (A) (A) (A) (A) (A) (A)
                 (A) (A) (A) (A) (A) (A) (A) (A) (A) (A) (A) (A)
                 (A) (A) (A) (A) (A) (A) (A) (A) (A) (A) (A) (A)
                 (A) (A) (A) (A) (A) (A) (A) (A) (A) (A) (A) (A)
                 (A) (A) (A) (A) (A) (A) (A) (A) (A) (A) (A) (A)
                 (A) (A) (A) (A) (A) (A) (A) (A) (A) (A) (A) (A)
                 (A) (A) (A) (A) (A) (A) (A) (A) (A) (A) (A) (A)
                 (A) (A) (A) (A) (A) (A) (A) (A) (A) (A) (A) (A)
                 (A) (A) (A) (A) (A) (A) (A) (A) (A) (A) (A) (A)
                 (A) (A) (A) (A) (A) (A) (A) (A) (A) (A) (A) (A)
                 (A) (A) (A) (A) (A) (A) (A) (A) (A) (A) (A) (A)
                 (A) (A) (A) (A) (A) (A) (A) (A) (A) (A) (A) (A)
                 (A) (A) (A) (A) (A) (A) (A) (A) (A) (A) (A) (A)
                 (A) (A) (A) (A) (A) (A) (A) (A)
 The electronic state is 1-A.
 Alpha  occ. eigenvalues --  -19.22567 -14.40731 -14.39857 -14.35866 -14.35862
 Alpha  occ. eigenvalues --  -10.29735 -10.27034 -10.26837 -10.25976 -10.24676
 Alpha  occ. eigenvalues --  -10.24609 -10.24594 -10.24120 -10.23866 -10.23797
 Alpha  occ. eigenvalues --  -10.23652 -10.23370 -10.23222 -10.22808 -10.22417
 Alpha  occ. eigenvalues --  -10.22107 -10.21658 -10.21321  -1.11032  -1.05502
 Alpha  occ. eigenvalues --   -0.93652  -0.92128  -0.91213  -0.90121  -0.86561
 Alpha  occ. eigenvalues --   -0.83831  -0.81037  -0.79890  -0.78085  -0.77425
 Alpha  occ. eigenvalues --   -0.72354  -0.68684  -0.67174  -0.66054  -0.65001
 Alpha  occ. eigenvalues --   -0.61439  -0.59808  -0.59202  -0.55607  -0.54286
 Alpha  occ. eigenvalues --   -0.53527  -0.52973  -0.51074  -0.49412  -0.47799
 Alpha  occ. eigenvalues --   -0.47251  -0.46493  -0.46037  -0.45278  -0.45111
 Alpha  occ. eigenvalues --   -0.43778  -0.43264  -0.43206  -0.41772  -0.41165
 Alpha  occ. eigenvalues --   -0.40168  -0.39836  -0.38397  -0.37885  -0.37694
 Alpha  occ. eigenvalues --   -0.37572  -0.36954  -0.36828  -0.35240  -0.34910
 Alpha  occ. eigenvalues --   -0.34329  -0.30479  -0.29428  -0.28535  -0.28320
 Alpha  occ. eigenvalues --   -0.25366  -0.23625
 Alpha virt. eigenvalues --   -0.12230  -0.08253  -0.06823  -0.05017  -0.03465
 Alpha virt. eigenvalues --   -0.03209  -0.01502  -0.00643  -0.00259   0.00197
 Alpha virt. eigenvalues --    0.00794   0.01376   0.01636   0.01998   0.02176
 Alpha virt. eigenvalues --    0.02850   0.03081   0.03569   0.03838   0.04682
 Alpha virt. eigenvalues --    0.04786   0.04845   0.05278   0.06194   0.06223
 Alpha virt. eigenvalues --    0.06489   0.06806   0.06957   0.07259   0.07563
 Alpha virt. eigenvalues --    0.07631   0.07755   0.08375   0.08639   0.09475
 Alpha virt. eigenvalues --    0.09923   0.10174   0.10574   0.10647   0.10752
 Alpha virt. eigenvalues --    0.11168   0.11303   0.11655   0.11930   0.12222
 Alpha virt. eigenvalues --    0.12630   0.12921   0.12972   0.13258   0.13451
 Alpha virt. eigenvalues --    0.13874   0.14351   0.14580   0.15015   0.15091
 Alpha virt. eigenvalues --    0.15382   0.15665   0.16281   0.16503   0.16780
 Alpha virt. eigenvalues --    0.16982   0.17306   0.17439   0.17804   0.18143
 Alpha virt. eigenvalues --    0.18832   0.19163   0.19254   0.19835   0.20082
 Alpha virt. eigenvalues --    0.20325   0.20420   0.21095   0.21609   0.21748
 Alpha virt. eigenvalues --    0.22120   0.22431   0.22561   0.22615   0.23024
 Alpha virt. eigenvalues --    0.23611   0.24089   0.24279   0.24461   0.24549
 Alpha virt. eigenvalues --    0.25107   0.25403   0.25435   0.25904   0.26117
 Alpha virt. eigenvalues --    0.26336   0.26545   0.26876   0.27264   0.27601
 Alpha virt. eigenvalues --    0.27713   0.27837   0.28016   0.28306   0.28357
 Alpha virt. eigenvalues --    0.28591   0.28715   0.29433   0.29582   0.30054
 Alpha virt. eigenvalues --    0.30113   0.30474   0.31328   0.31726   0.31891
 Alpha virt. eigenvalues --    0.32457   0.33089   0.33427   0.33563   0.34356
 Alpha virt. eigenvalues --    0.34770   0.35288   0.35347   0.35693   0.36345
 Alpha virt. eigenvalues --    0.37110   0.37149   0.37743   0.38382   0.39552
 Alpha virt. eigenvalues --    0.40013   0.41082   0.41904   0.42363   0.42797
 Alpha virt. eigenvalues --    0.43147   0.44361   0.45399   0.45585   0.47510
 Alpha virt. eigenvalues --    0.48897   0.50873   0.51959   0.53973   0.56508
 Alpha virt. eigenvalues --    0.58631   0.59851   0.63129   0.63745   0.64136
 Alpha virt. eigenvalues --    0.65081   0.65386   0.65723   0.66175   0.67537
 Alpha virt. eigenvalues --    0.68253   0.70026   0.70622   0.71052   0.71572
 Alpha virt. eigenvalues --    0.71889   0.72335   0.73012   0.73286   0.73710
 Alpha virt. eigenvalues --    0.73947   0.74459   0.75061   0.75296   0.76349
 Alpha virt. eigenvalues --    0.77067   0.77779   0.77909   0.78611   0.78891
 Alpha virt. eigenvalues --    0.80059   0.80743   0.82978   0.83007   0.84650
 Alpha virt. eigenvalues --    0.85502   0.86769   0.87231   0.88136   0.88977
 Alpha virt. eigenvalues --    0.91015   0.91309   0.92238   0.93194   0.94387
 Alpha virt. eigenvalues --    0.95692   0.96644   0.97095   0.98697   0.98979
 Alpha virt. eigenvalues --    0.99714   1.00279   1.00468   1.01460   1.01688
 Alpha virt. eigenvalues --    1.02660   1.03525   1.03698   1.04422   1.04806
 Alpha virt. eigenvalues --    1.06245   1.08114   1.08720   1.09711   1.09790
 Alpha virt. eigenvalues --    1.11966   1.12705   1.13317   1.14474   1.14977
 Alpha virt. eigenvalues --    1.16858   1.17066   1.17170   1.17620   1.18373
 Alpha virt. eigenvalues --    1.18718   1.19646   1.19942   1.20859   1.21435
 Alpha virt. eigenvalues --    1.21933   1.24469   1.25925   1.26580   1.27524
 Alpha virt. eigenvalues --    1.28394   1.28654   1.28960   1.29507   1.29845
 Alpha virt. eigenvalues --    1.30461   1.31503   1.31707   1.32090   1.32965
 Alpha virt. eigenvalues --    1.34101   1.34728   1.35348   1.36098   1.36710
 Alpha virt. eigenvalues --    1.37245   1.38411   1.38696   1.39169   1.39728
 Alpha virt. eigenvalues --    1.40645   1.43189   1.43675   1.46139   1.47809
 Alpha virt. eigenvalues --    1.49010   1.50069   1.51340   1.52234   1.53938
 Alpha virt. eigenvalues --    1.54108   1.54915   1.55734   1.59100   1.60340
 Alpha virt. eigenvalues --    1.64123   1.68635   1.69445   1.71844   1.74291
 Alpha virt. eigenvalues --    1.74721   1.76175   1.78036   1.78813   1.79339
 Alpha virt. eigenvalues --    1.80058   1.80794   1.81090   1.82317   1.83996
 Alpha virt. eigenvalues --    1.85235   1.86472   1.87670   1.87783   1.88885
 Alpha virt. eigenvalues --    1.88945   1.90612   1.91236   1.92402   1.92566
 Alpha virt. eigenvalues --    1.93787   1.94367   1.94445   1.96024   1.96103
 Alpha virt. eigenvalues --    1.96631   1.97296   1.97619   1.97956   1.99108
 Alpha virt. eigenvalues --    2.00030   2.01638   2.02191   2.02327   2.05179
 Alpha virt. eigenvalues --    2.06884   2.08988   2.09646   2.10978   2.11467
 Alpha virt. eigenvalues --    2.16488   2.17721   2.19127   2.20426   2.21019
 Alpha virt. eigenvalues --    2.21390   2.22048   2.24256   2.25084   2.25760
 Alpha virt. eigenvalues --    2.27839   2.31888   2.32744   2.34988   2.35154
 Alpha virt. eigenvalues --    2.36346   2.38113   2.38944   2.39763   2.41342
 Alpha virt. eigenvalues --    2.42436   2.43201   2.43464   2.44423   2.45060
 Alpha virt. eigenvalues --    2.46972   2.47806   2.48935   2.50475   2.51454
 Alpha virt. eigenvalues --    2.52793   2.53111   2.53462   2.53975   2.54867
 Alpha virt. eigenvalues --    2.57000   2.59319   2.59583   2.61703   2.62665
 Alpha virt. eigenvalues --    2.63003   2.63783   2.64823   2.65122   2.66466
 Alpha virt. eigenvalues --    2.67728   2.69365   2.69997   2.72420   2.73411
 Alpha virt. eigenvalues --    2.73838   2.75772   2.79324   2.80227   2.81327
 Alpha virt. eigenvalues --    2.83586   2.85419   2.85765   2.90709   2.94025
 Alpha virt. eigenvalues --    2.99378   3.02002   3.03164   3.05261   3.09107
 Alpha virt. eigenvalues --    3.10928   3.12312   3.13963   3.16485   3.19414
 Alpha virt. eigenvalues --    3.20443   3.21844   3.26922   3.27602   3.28481
 Alpha virt. eigenvalues --    3.29795   3.33009   3.34710   3.37583   3.42636
 Alpha virt. eigenvalues --    3.43955   3.50988   3.52039   3.55530   3.74428
 Alpha virt. eigenvalues --    3.80465   3.86851
          Condensed to atoms (all electrons):
               1          2          3          4          5          6
     1  C   13.670188  -2.008771   0.124580  -0.062612  -2.798982   0.093228
     2  C   -2.008771  15.285062  -4.309507   0.067155  -1.315625   3.128791
     3  C    0.124580  -4.309507  11.985899   0.362443   3.514122  -4.061754
     4  H   -0.062612   0.067155   0.362443   0.603654   0.106842  -0.066068
     5  C   -2.798982  -1.315625   3.514122   0.106842  20.330028 -11.506828
     6  C    0.093228   3.128791  -4.061754  -0.066068 -11.506828  20.227913
     7  H    0.160482  -0.022947   0.095344   0.001625   0.439937  -0.214008
     8  H   -0.044812   0.102644  -0.025301  -0.016091   0.040920   0.347810
     9  C    0.285802  -2.746039  -0.581749   0.071538  -2.001363  -3.451819
    10  C   -2.603469  -1.504093  -1.083795   0.002331  -0.415515   1.480703
    11  N    0.170971   0.271605   0.049789   0.000508  -0.023395  -0.049778
    12  C   -1.201149  -1.389529  -0.213856  -0.229773  -1.610334   0.509202
    13  N    0.283974   0.098147  -0.068108   0.004187   0.058129  -0.027226
    14  N   -0.209801   0.264391   0.346333  -0.001373  -0.639269   1.417784
    15  N    0.151346  -0.219736  -0.180989   0.004940   0.921092  -1.684312
    16  C   -0.001697   0.009751  -0.001315   0.000107  -0.152528   0.029645
    17  C    0.012929  -0.043527   0.045991   0.002115   1.336352  -1.047061
    18  C   -0.134544  -0.057233   0.081441   0.002166   0.441713  -0.588311
    19  C    0.019069   0.106094  -0.102676  -0.001759  -0.746135   0.608224
    20  C   -0.005006  -0.018583   0.028727   0.000426   0.425652  -0.249063
    21  C    0.007733   0.002147  -0.002695  -0.000126  -0.094914   0.066285
    22  C   -0.004281  -0.005873   0.008266   0.000313   0.162424  -0.176139
    23  C    0.001296   0.001689  -0.002728  -0.000116  -0.023786   0.044260
    24  C    0.045007  -0.026067   0.030422  -0.001781  -0.477731   0.714067
    25  C    0.006933  -0.058549   0.016689  -0.000306  -0.427244   0.228375
    26  H   -0.000040  -0.000023   0.000070   0.000004   0.001592  -0.001930
    27  H   -0.000012   0.000078  -0.000089  -0.000004  -0.000800   0.001322
    28  H    0.000311  -0.000592   0.000374  -0.000003  -0.002579   0.005281
    29  H    0.014328   0.002327  -0.011770   0.001154   0.022281  -0.049832
    30  H   -0.000243   0.000163   0.000031   0.000001  -0.004062   0.002128
    31  H   -0.001605  -0.000260   0.000797  -0.000014   0.031466  -0.005336
    32  O   -0.000001   0.000008   0.000003   0.000000   0.000300  -0.000170
    33  H    0.000014   0.000016  -0.000024  -0.000001  -0.000704   0.000476
               7          8          9         10         11         12
     1  C    0.160482  -0.044812   0.285802  -2.603469   0.170971  -1.201149
     2  C   -0.022947   0.102644  -2.746039  -1.504093   0.271605  -1.389529
     3  C    0.095344  -0.025301  -0.581749  -1.083795   0.049789  -0.213856
     4  H    0.001625  -0.016091   0.071538   0.002331   0.000508  -0.229773
     5  C    0.439937   0.040920  -2.001363  -0.415515  -0.023395  -1.610334
     6  C   -0.214008   0.347810  -3.451819   1.480703  -0.049778   0.509202
     7  H    0.656718  -0.003968   0.015257  -0.328234   0.009755   0.005176
     8  H   -0.003968   0.626012  -0.143795   0.016892  -0.000157  -0.007969
     9  C    0.015257  -0.143795  16.330950  -0.718500   0.038330   0.167203
    10  C   -0.328234   0.016892  -0.718500  13.693480  -0.140148  -2.238280
    11  N    0.009755  -0.000157   0.038330  -0.140148   7.035740   0.021571
    12  C    0.005176  -0.007969   0.167203  -2.238280   0.021571  12.341141
    13  N    0.000614   0.000085   0.002285   0.005223   0.004807  -0.003133
    14  N   -0.091969   0.018871  -1.618560   0.118629  -0.000824  -0.040422
    15  N    0.115499  -0.030283   1.203302  -0.139894   0.001928   0.024364
    16  C    0.003508   0.000545   0.125219   0.000489   0.000069  -0.000033
    17  C    0.049732  -0.006430  -0.494395  -0.052520   0.000665   0.000429
    18  C   -0.020737   0.002299   0.297860   0.025806  -0.000131  -0.028502
    19  C   -0.018924   0.002497   0.339921   0.015136   0.000065  -0.000307
    20  C    0.011597  -0.000817  -0.354898  -0.011037   0.000097  -0.001935
    21  C    0.005236  -0.000040   0.062432  -0.001671   0.000008   0.000641
    22  C    0.006205  -0.002882  -0.068425  -0.001768   0.000009  -0.000367
    23  C   -0.001480   0.001244  -0.010044   0.000424  -0.000002   0.000140
    24  C   -0.010099   0.007425  -0.287668  -0.003245  -0.000004   0.005315
    25  C   -0.015839  -0.002425   0.156999  -0.007964  -0.000026   0.006431
    26  H    0.000068  -0.000069  -0.000406  -0.000016   0.000000  -0.000003
    27  H   -0.000043   0.000143  -0.000183   0.000013   0.000000   0.000000
    28  H   -0.000119  -0.001116  -0.002591  -0.000014   0.000000   0.000084
    29  H    0.004955  -0.018274  -0.002339  -0.003965   0.000048  -0.002714
    30  H    0.000508   0.000025   0.002141   0.000149   0.000002  -0.000012
    31  H   -0.015994   0.000455  -0.029082   0.006841  -0.000173  -0.000532
    32  O    0.000079  -0.000009  -0.000456  -0.000002   0.000000   0.000000
    33  H   -0.000013   0.000011   0.000725   0.000009   0.000000   0.000001
              13         14         15         16         17         18
     1  C    0.283974  -0.209801   0.151346  -0.001697   0.012929  -0.134544
     2  C    0.098147   0.264391  -0.219736   0.009751  -0.043527  -0.057233
     3  C   -0.068108   0.346333  -0.180989  -0.001315   0.045991   0.081441
     4  H    0.004187  -0.001373   0.004940   0.000107   0.002115   0.002166
     5  C    0.058129  -0.639269   0.921092  -0.152528   1.336352   0.441713
     6  C   -0.027226   1.417784  -1.684312   0.029645  -1.047061  -0.588311
     7  H    0.000614  -0.091969   0.115499   0.003508   0.049732  -0.020737
     8  H    0.000085   0.018871  -0.030283   0.000545  -0.006430   0.002299
     9  C    0.002285  -1.618560   1.203302   0.125219  -0.494395   0.297860
    10  C    0.005223   0.118629  -0.139894   0.000489  -0.052520   0.025806
    11  N    0.004807  -0.000824   0.001928   0.000069   0.000665  -0.000131
    12  C   -0.003133  -0.040422   0.024364  -0.000033   0.000429  -0.028502
    13  N    7.035234   0.000353  -0.000191  -0.000001  -0.000017   0.000195
    14  N    0.000353   9.585122  -2.243839  -0.294071  -1.189368   0.909617
    15  N   -0.000191  -2.243839   9.459078   0.445994   1.212452  -1.101880
    16  C   -0.000001  -0.294071   0.445994  13.570001  -0.347562  -4.108839
    17  C   -0.000017  -1.189368   1.212452  -0.347562  10.205627  -1.480203
    18  C    0.000195   0.909617  -1.101880  -4.108839  -1.480203  13.134708
    19  C    0.000005   0.311361  -0.339840   0.528706  -1.596566   1.602059
    20  C    0.000005  -0.024889   0.023233  -3.507946   0.976967  -0.486730
    21  C   -0.000001   0.128328  -0.267797  -2.373610  -1.504711   3.073748
    22  C    0.000000  -0.051172   0.090150   1.346307   1.060314  -2.202017
    23  C    0.000000  -0.022962   0.010420  -0.584790  -0.022667   0.381544
    24  C   -0.000011   0.014617   0.002038   0.279342  -0.860357  -1.267812
    25  C   -0.000032   0.307571  -0.375404   0.902450  -0.648790  -1.824299
    26  H    0.000000  -0.001178   0.002145   0.009298   0.036916  -0.064674
    27  H    0.000000  -0.000054   0.000093  -0.004831  -0.004128   0.011050
    28  H    0.000000  -0.000880  -0.000498   0.005541  -0.004900  -0.015624
    29  H    0.000037   0.044737  -0.018406  -0.001155  -0.013032  -0.067305
    30  H    0.000000   0.003527   0.003111   0.514187  -0.044397  -0.045586
    31  H    0.000003  -0.004991  -0.017717  -0.008360   0.289450  -0.053479
    32  O    0.000000   0.000028  -0.000137  -0.845393   0.084734   0.053898
    33  H    0.000000   0.000362  -0.000848   0.161936  -0.016205   0.009192
              19         20         21         22         23         24
     1  C    0.019069  -0.005006   0.007733  -0.004281   0.001296   0.045007
     2  C    0.106094  -0.018583   0.002147  -0.005873   0.001689  -0.026067
     3  C   -0.102676   0.028727  -0.002695   0.008266  -0.002728   0.030422
     4  H   -0.001759   0.000426  -0.000126   0.000313  -0.000116  -0.001781
     5  C   -0.746135   0.425652  -0.094914   0.162424  -0.023786  -0.477731
     6  C    0.608224  -0.249063   0.066285  -0.176139   0.044260   0.714067
     7  H   -0.018924   0.011597   0.005236   0.006205  -0.001480  -0.010099
     8  H    0.002497  -0.000817  -0.000040  -0.002882   0.001244   0.007425
     9  C    0.339921  -0.354898   0.062432  -0.068425  -0.010044  -0.287668
    10  C    0.015136  -0.011037  -0.001671  -0.001768   0.000424  -0.003245
    11  N    0.000065   0.000097   0.000008   0.000009  -0.000002  -0.000004
    12  C   -0.000307  -0.001935   0.000641  -0.000367   0.000140   0.005315
    13  N    0.000005   0.000005  -0.000001   0.000000   0.000000  -0.000011
    14  N    0.311361  -0.024889   0.128328  -0.051172  -0.022962   0.014617
    15  N   -0.339840   0.023233  -0.267797   0.090150   0.010420   0.002038
    16  C    0.528706  -3.507946  -2.373610   1.346307  -0.584790   0.279342
    17  C   -1.596566   0.976967  -1.504711   1.060314  -0.022667  -0.860357
    18  C    1.602059  -0.486730   3.073748  -2.202017   0.381544  -1.267812
    19  C   12.411325   0.296353  -2.682613  -2.979570   0.730503  -2.445270
    20  C    0.296353  14.811236  -1.929826  -3.820406   0.197788   1.430955
    21  C   -2.682613  -1.929826  13.650893  -1.340429  -0.420195   0.788470
    22  C   -2.979570  -3.820406  -1.340429  14.320429  -1.415379  -2.253780
    23  C    0.730503   0.197788  -0.420195  -1.415379   6.914434   1.239654
    24  C   -2.445270   1.430955   0.788470  -2.253780   1.239654  11.674987
    25  C   -0.783774  -2.338026  -0.408829   3.359442  -1.424002  -2.991289
    26  H    0.078820  -0.190913  -0.277202   0.624821   0.009734  -0.068909
    27  H    0.094895  -0.001388  -0.033232  -0.106000   0.353076  -0.068364
    28  H   -0.065836   0.050323   0.019638   0.034234  -0.066509   0.446213
    29  H   -0.056868   0.037857  -0.009648  -0.003112   0.017689  -0.009826
    30  H    0.069068  -0.027116  -0.195905  -0.000919  -0.007747   0.005724
    31  H    0.016866   0.025512  -0.023983   0.016480   0.001405   0.000017
[...]
 00015368,-0.07677480,-0.06788276,0.00026280,0.00937559,0.02364853,-0.0
 0011695,-0.00050042,-0.00161700,0.00000728,0.00105236,0.00045099,0.000
 01016,0.07739524,0.00005006,-0.00001516,0.00000021,-0.00001774,0.00001
 577,-0.00000002,-0.00003183,0.00001766,-0.00000017,0.00000989,0.000000
 48,0.00000006,0.00005840,-0.00001130,0.00000022,0.00008539,-0.00002919
 ,0.00000036,-0.00001816,0.00000797,-0.00000011,0.00000697,-0.00000178,
 0.00000017,-0.00014311,-0.00003781,-0.00000123,0.00000082,0.00000418,-
 0.00000001,0.00000528,-0.00000458,0.00000002,-0.00003050,0.00000039,-0
 .00000008,0.00002306,0.00000513,0.00000002,0.00014279,0.00017715,0.000
 00187,-0.00018456,-0.00016466,0.00000076,0.00007640,-0.00000209,0.0000
 0135,0.00036416,-0.00027219,-0.00000123,-0.00076134,-0.00055959,0.0000
 0237,0.00354632,-0.00052757,0.00006108,0.00049821,0.00044708,-0.000003
 78,-0.00000134,0.00012409,-0.00000614,-0.00143592,0.00148492,0.0000193
 5,0.00057686,-0.00381316,0.00004299,-0.06783999,-0.32312941,0.00139566
 ,-0.00694155,-0.01684311,0.00009657,0.00006494,-0.00031686,0.00000253,
 -0.00025040,0.00068533,-0.00002180,0.07221353,0.34186596,-0.00000026,0
 .00000006,-0.00000575,0.00000005,0.,0.00002206,0.00000017,-0.00000013,
 0.00000547,-0.00000009,0.00000004,0.00000578,-0.00000033,0.00000004,-0
 .00000355,-0.00000055,0.00000026,-0.00001121,0.00000012,-0.00000006,-0
 .00000114,-0.00000018,0.00000014,0.00002371,0.00000137,-0.00000083,-0.
 00017763,-0.00000002,0.,0.00000144,0.,-0.00000002,-0.00000317,0.000000
 14,0.,0.00000303,-0.00000009,-0.00000005,-0.00000367,-0.00000203,0.000
 00137,0.00043110,0.00000077,0.00000104,0.00007181,-0.00000156,0.000000
 99,0.00019508,-0.00000061,-0.00000124,-0.00069038,0.00000660,0.0000067
 7,0.00027864,-0.00005635,0.00005990,0.00836929,-0.00000399,-0.00000270
 ,-0.00049715,0.00000236,-0.00000718,-0.00096553,-0.00002680,0.00002136
 ,0.00571074,-0.00002171,-0.00005333,0.00349924,0.00026251,0.00139544,-
 0.03812918,0.00005541,0.00019125,0.00410561,-0.00000221,-0.00000268,0.
 00009581,0.00001411,-0.00001965,-0.00304781,-0.00024695,-0.00155745,0.
 02574872,-0.00000916,0.00002881,-0.00000020,0.00002861,-0.00006177,0.0
 0000034,0.00008547,-0.00011424,0.00000092,0.00001610,0.00000191,0.0000
 0001,0.00002954,0.00005091,-0.00000015,-0.00009315,0.00013779,-0.00000
 074,-0.00001837,-0.00000163,-0.00000012,-0.00032437,-0.00022171,-0.000
 00025,-0.00065588,-0.00000757,-0.00000346,-0.00001851,0.00003038,-0.00
 000016,0.00002532,-0.00003895,0.00000031,-0.00001395,-0.00001621,0.000
 00005,0.00003472,0.00000977,0.00000007,-0.00927058,0.00351126,-0.00004
 147,0.00345728,0.00021711,0.00000394,-0.00044544,0.00031830,-0.0000027
 9,0.00007327,0.00044901,-0.00000182,-0.00073919,-0.00042178,0.00001067
 ,-0.00065913,-0.00088033,-0.00000868,0.00183876,-0.00033698,-0.0000099
 0,0.00044183,-0.00004384,0.00000139,0.00066246,0.00081232,-0.00000020,
 -0.00097192,0.00268472,-0.00004495,-0.01290918,-0.00603691,-0.00002078
 ,-0.33277767,-0.08639806,-0.00041735,0.00000752,0.00001222,0.00000366,
 -0.00044667,-0.00036095,0.00000048,0.00092109,0.00000030,0.00001858,0.
 35230531,0.00000489,-0.00003334,0.00000022,0.00003800,0.00015493,-0.00
 000058,-0.00004620,-0.00009265,0.00000036,-0.00003554,-0.00000041,-0.0
 0000006,-0.00060981,-0.00009062,-0.00000145,-0.00004677,0.00021006,-0.
 00000192,0.00008484,-0.00001422,0.00000047,-0.00007431,0.00003038,0.00
 000051,0.00042792,0.00146602,-0.00000422,-0.00005770,-0.00001902,-0.00
 000020,-0.00000972,0.00003665,-0.00000026,0.00003231,-0.00001246,0.000
 00017,-0.00003288,-0.00000764,-0.00000009,0.00206708,-0.00038656,-0.00
 000418,-0.00238575,-0.00240633,0.00001625,0.00064517,-0.00039054,0.000
 00351,-0.00052294,-0.00061804,0.00000099,0.00132877,0.00122711,-0.0000
 2209,-0.03137189,-0.00425831,-0.00005197,0.00004597,-0.00541380,0.0000
 6254,-0.00229127,0.00069482,-0.00001058,0.00038613,-0.00122003,0.00000
 383,0.00334784,-0.00268587,0.00007432,0.02274437,0.00985452,0.00004190
 ,-0.08152418,-0.08274272,-0.00001447,-0.00009259,0.00013717,-0.0000078
 1,0.00111189,0.00031907,0.00000196,-0.00030725,0.00102028,-0.00003534,
 0.08672611,0.08590934,-0.00000006,0.00000029,0.00000260,-0.00000022,-0
 .00000089,0.00003132,0.00000054,0.00000015,-0.00000325,0.00000022,0.00
 000006,0.00000906,0.00000357,0.00000059,-0.00001383,0.00000030,-0.0000
 0135,-0.00010460,-0.00000061,0.00000021,0.00002345,-0.00000108,0.00000
 006,0.00016208,-0.00000592,-0.00000559,0.00047994,0.00000034,0.0000000
 7,-0.00002254,0.00000015,-0.00000035,-0.00000475,-0.00000022,0.0000000
 2,-0.00000018,0.00000031,0.00000004,-0.00000544,-0.00003333,0.00000034
 ,-0.00225695,0.00001863,0.00002426,0.00178212,-0.00000464,0.00000250,-
 0.00012267,0.00000365,0.00000400,-0.00015429,0.00000080,-0.00002750,-0
 .00342019,0.00016324,0.00004249,0.00374657,-0.00001214,0.00006139,0.00
 565823,0.00001405,-0.00000365,0.00007351,0.00000220,0.00000510,-0.0007
 5212,-0.00004866,0.00007226,0.00866224,-0.00018304,-0.00004712,0.00480
 133,-0.00044480,-0.00002965,-0.04055176,0.00000426,-0.00000749,-0.0011
 9792,-0.00000781,-0.00000260,0.00005467,0.00002031,-0.00003437,-0.0050
 8082,0.00051527,-0.00005900,0.02782768,-0.00004696,0.00000715,-0.00000
 020,0.00000817,-0.00001334,0.00000003,0.00002163,-0.00001429,0.0000000
 8,-0.00000866,-0.00000093,-0.00000001,-0.00005847,0.00000141,-0.000000
 19,-0.00009909,0.00001953,-0.00000049,0.00001073,-0.00001837,0.0000001
 3,0.00000654,0.00000430,0.,0.00009859,-0.00011065,0.00000169,0.0000069
 8,-0.00002282,0.00000014,-0.00000248,0.00002828,-0.00000014,0.00003025
 ,0.00000080,0.00000010,-0.00002488,-0.00000122,-0.00000006,-0.00062273
 ,-0.00021000,0.00000014,-0.00023104,-0.00140639,0.00000432,-0.07860867
 ,-0.07472908,0.00028485,-0.00340666,-0.03085383,0.00015860,-0.00435297
 ,0.00117903,-0.00003898,-0.00073841,0.00038646,-0.00000306,-0.00375218
 ,0.00226102,-0.00004346,0.00973897,0.02289313,-0.00011504,0.00094098,0
 .00081584,-0.00000200,-0.00016696,0.00034940,-0.00000030,-0.00026243,-
 0.00000708,-0.00000099,0.00020136,-0.00026686,0.00000381,-0.00007156,-
 0.00003899,-0.00000082,0.00003479,0.00012242,-0.00000058,0.00001520,-0
 .00000521,-0.00000030,-0.00002143,0.00005140,-0.00000048,0.07846143,-0
 .00002370,0.00000752,-0.00000009,0.00000066,-0.00001094,0.00000018,0.0
 0001051,0.00000075,0.00000015,-0.00000335,-0.00000095,-0.00000002,-0.0
 0002183,-0.00000092,-0.00000006,-0.00003177,0.00000813,0.,0.00000850,-
 0.00000491,0.00000006,0.00000433,0.00000445,-0.00000003,0.00004595,-0.
 00000618,-0.00000122,0.00000335,-0.00001001,0.00000008,-0.00000543,0.0
 0001096,-0.00000012,0.00001766,0.00000050,0.00000004,-0.00001640,-0.00
 000195,-0.00000005,-0.00006022,-0.00004551,-0.00000153,0.00002500,-0.0
 0020578,0.00000647,-0.07252242,-0.32620023,0.00142131,-0.00039035,-0.0
 0200340,0.00001885,-0.00025019,0.00209780,0.00002197,0.00045281,0.0002
 0709,-0.00000233,0.00372159,-0.00092763,0.00005163,-0.00919294,-0.0182
 7332,0.00010394,-0.00095040,-0.00043258,0.00000007,0.00031171,-0.00028
 005,-0.00000145,0.00017580,0.00005055,0.00000066,-0.00010970,0.0001298
 8,-0.00000414,0.00014520,0.00003241,0.00000177,-0.00003588,-0.00010534
 ,0.00000047,-0.00000181,-0.00001162,0.00000074,-0.00000620,-0.00001287
 ,0.00000028,0.08004703,0.34349884,-0.00000002,0.,0.00000431,-0.0000000
 4,0.00000014,0.00002132,-0.00000006,0.00000007,0.00002134,0.,-0.000000
 01,-0.00000282,-0.00000006,0.00000001,0.00000096,-0.00000020,0.0000001
 6,0.00002519,-0.00000002,-0.00000002,0.00000137,0.,-0.00000003,-0.0000
 0347,0.00000081,-0.00000170,-0.00024753,0.,0.,0.00000192,0.00000005,-0
 .00000002,-0.00000773,0.,-0.00000002,-0.00000271,0.00000002,0.,-0.0000
 0236,-0.00000070,-0.00000198,-0.00028331,-0.00000374,0.00000204,0.0009
 2930,0.00027250,0.00141453,-0.03440407,-0.00001322,-0.00007529,0.00155
 410,-0.00003095,0.00002638,0.00612709,-0.00000340,-0.00000257,-0.00045
 347,-0.00005170,0.00004707,0.00618895,0.00006584,0.00020310,0.00519809
 ,0.00000794,0.00000555,0.00010095,-0.00000009,-0.00000136,-0.00070899,
 -0.00000200,0.00000009,0.00007072,0.00000292,-0.00000460,-0.00054375,-
 0.00000187,0.00000120,0.00026641,0.00000031,0.00000096,-0.00000164,-0.
 00000032,0.00000073,0.00012091,-0.00000016,0.00000046,0.00004040,-0.00
 028336,-0.00155386,0.02407393,0.00002860,0.00001414,0.,-0.00003778,0.0
 0003829,-0.00000048,0.00001995,0.00001814,0.00000017,0.00000757,0.0000
 0158,0.,-0.00000081,-0.00012227,0.00000089,0.00001725,-0.00002248,0.00
 000025,-0.00018532,-0.00005974,-0.00000062,-0.00000328,0.00000825,-0.0
 0000018,0.00005170,0.00007120,-0.00000056,-0.00000763,0.00000087,-0.00
 000006,0.00001578,-0.00000948,0.00000019,-0.00002940,0.00000925,-0.000
 00018,0.00003029,0.00000265,0.00000010,-0.00001039,0.00035976,-0.00000
 553,-0.00041889,-0.00284716,0.00003433,-0.01523203,0.02119522,-0.00018
 107,-0.20171369,0.14555710,-0.00132104,0.00846217,-0.00606748,0.000042
 53,-0.00031664,-0.00200391,-0.00000692,-0.00003194,-0.00075517,0.00000
 677,-0.00334870,-0.00280291,-0.00001517,-0.00009442,0.00028669,-0.0000
 0098,-0.00018512,-0.00016594,-0.00000005,0.00017655,-0.00016706,0.0000
 0342,0.00033356,0.00015930,-0.00000194,0.00004226,-0.00000587,0.000000
 10,-0.00000188,0.00000933,-0.00000034,0.00003526,-0.00003675,0.0000006
 2,-0.00002614,-0.00002110,-0.00000046,0.00110108,-0.00012607,0.0000152
 3,0.21285768,-0.00000099,0.00002440,-0.00000013,-0.00001306,0.00005917
 ,-0.00000010,0.00006873,-0.00001545,-0.00000009,0.00000796,0.00000171,
 0.00000003,-0.00002158,-0.00008451,0.00000005,-0.00004135,-0.00008309,
 0.00000021,-0.00017868,0.00002114,0.00000003,-0.00000168,-0.00000348,0
 .00000024,0.00016050,-0.00007398,0.00000150,-0.00001145,0.00001917,-0.
 00000008,0.00001095,-0.00002400,0.00000001,-0.00000529,0.00001285,-0.0
 0000002,0.00001940,0.00000118,0.,-0.00107864,0.00065172,-0.00000063,0.
 00339676,0.00189292,-0.00003596,-0.00827046,0.01053903,-0.00005824,0.1
 4271929,-0.20105757,0.00135128,0.02235046,-0.01751926,0.00020015,-0.00
 342599,-0.00449564,0.00004619,-0.00061167,-0.00021175,-0.00000547,-0.0
 0246338,0.00009846,0.00002952,0.00003456,0.00028932,-0.00000322,-0.000
 23496,-0.00011645,0.00000068,-0.00003442,-0.00053744,-0.00000059,0.001
 36376,-0.00008171,0.00000847,0.00004254,-0.00001778,0.00000034,0.00001
 931,0.00000063,0.00000057,0.00012177,-0.00010462,0.00000041,0.00005074
 ,-0.00002603,0.00000122,0.00038504,0.00071268,-0.00002312,-0.15360641,
 0.20969576,0.00000009,-0.00000009,0.00000155,-0.00000019,0.00000006,0.
 00004892,-0.00000011,-0.00000025,-0.00006887,-0.00000003,0.00000001,0.
 00000317,0.00000032,-0.00000026,-0.00006452,0.00000036,0.00000026,-0.0
 0002372,0.00000005,0.00000039,0.00012370,-0.00000013,0.00000028,0.0000
 4082,-0.00000107,0.00000123,0.00010480,0.,-0.00000004,0.00001183,0.000
 00007,-0.00000005,-0.00002812,-0.00000010,0.00000003,0.00001250,0.,-0.
 00000004,-0.00000797,0.00000256,0.00000378,0.00112892,-0.00000086,-0.0
 0005523,-0.00634810,-0.00001512,0.00003272,0.00473262,-0.00130495,0.00
 136012,-0.03939596,-0.00011754,0.00011233,0.00575308,0.00000103,0.0000
 5063,0.00558480,0.00000597,-0.00000587,-0.00084755,-0.00001710,0.00002
 846,0.00668855,0.00000046,-0.00000247,-0.00030181,0.00000035,0.0000009
 2,0.00013412,0.00000265,-0.00000100,-0.00062434,-0.00000873,0.00000473
 ,0.00067223,-0.00000017,0.00000019,0.00001981,-0.00000040,0.00000054,0
 .00009073,-0.00000027,-0.00000008,-0.00009906,-0.00000087,0.00000100,0
 .00016263,0.00001235,-0.00002473,-0.00360311,0.00144040,-0.00150581,0.
 02657292,-0.00153365,0.00044523,-0.00000705,0.00031852,-0.00047672,0.0
 0000358,0.00103076,-0.00000015,0.00000300,-0.00010488,-0.00004308,-0.0
 0000007,-0.00108970,0.00030210,-0.00000461,-0.00183682,-0.00020074,-0.
 00000412,0.00018659,-0.00012978,0.00000134,0.00010683,0.00009226,-0.00
 000023,0.00426822,0.00005557,0.00001168,0.00016903,-0.00037963,0.00000
 261,-0.00020315,0.00043188,-0.00000307,0.00106304,0.00004809,0.0000030
 1,-0.00086440,-0.00010595,-0.00000209,-0.00536656,-0.00658956,0.000021
 13,0.01152423,0.00453688,0.00001178,-0.07073065,-0.00100730,-0.0002352
 1,0.01270408,0.01081774,-0.00003903,-0.01390951,-0.00488405,-0.0000119
 1,0.00280598,0.00032832,-0.00001047,-0.02228917,-0.02206761,0.00003390
 ,-0.29348967,-0.08621078,-0.00029934,-0.00714498,0.00934988,-0.0000693
 0,0.00122238,-0.00363595,0.00002140,0.00178641,0.00078008,0.00000251,-
 0.00024345,0.00085402,-0.00000464,0.00502403,0.00033384,0.00001668,0.0
 0000232,-0.00013385,0.00000036,0.00034067,-0.00008384,0.00000164,-0.00
 052516,0.00027787,-0.00000388,0.00160637,-0.00117442,0.00002295,-0.001
 16169,-0.00051430,-0.00000052,0.59998882,-0.00021821,0.00006303,-0.000
 00137,0.00001933,-0.00007577,0.00000064,0.00012370,0.00003393,0.000000
 50,-0.00001459,-0.00000799,-0.00000002,-0.00018552,-0.00001174,-0.0000
 0134,-0.00022112,-0.00002585,-0.00000130,0.00002212,-0.00003642,0.0000
 0023,0.00003890,0.00003165,0.00000002,0.00052321,0.00011775,0.00000307
 ,0.00003145,-0.00008547,0.00000068,-0.00003476,0.00009822,-0.00000064,
 0.00015744,0.00000835,0.00000043,-0.00013810,-0.00001294,-0.00000032,-
 0.00039577,-0.00052058,0.00000072,0.00117731,0.00132728,-0.00000711,0.
 03330970,0.01875630,0.00003805,0.00035436,-0.00757744,0.00007527,-0.00
 247628,0.00260463,-0.00002881,0.00663861,-0.00743238,0.00009407,-0.043
 95603,-0.01325516,-0.00002123,-0.03813090,-0.13277815,0.00041145,0.000
 83578,0.00251360,-0.00002169,-0.00294896,-0.00074256,0.00000030,0.0013
 8066,-0.00051782,0.00000468,-0.00275447,0.00082840,-0.00001491,-0.0028
 8386,-0.00316260,0.00000348,0.00008527,-0.00006060,0.00000135,-0.00010
 190,-0.00008654,-0.00000003,0.00004290,-0.00069993,0.00000534,-0.00065
 591,0.00154595,-0.00003146,0.00122295,0.00045749,0.00000090,-0.1531990
 1,0.47108054,-0.00000331,0.00000068,-0.00006041,0.00000079,-0.00000088
 ,0.00002803,0.00000231,0.00000012,0.00005568,-0.00000023,-0.00000010,-
 0.00000295,-0.00000186,0.00000017,-0.00014753,-0.00000400,-0.00000123,
 -0.00013493,0.00000048,-0.00000024,-0.00000838,0.00000007,0.00000018,0
 .00001356,0.00000905,0.00000162,0.00037509,0.00000029,-0.00000059,0.00
 001746,-0.00000044,0.00000080,0.00000320,0.00000239,0.00000010,-0.0000
 0084,-0.00000190,-0.00000022,0.00000522,-0.00001376,-0.00001838,-0.000
 17708,0.00003066,0.00000325,-0.00057717,-0.00042864,-0.00006807,0.0072
 6963,0.00001975,0.00010760,0.00558814,-0.00002536,-0.00003613,-0.00115
 117,-0.00004605,0.00007448,0.00560687,0.00015725,0.00004622,0.00705117
 ,-0.00057142,0.00026282,-0.03909664,-0.00002127,0.00000456,-0.00179966
 ,0.00001751,-0.00000181,0.00093030,-0.00000087,0.00000280,-0.00044655,
 0.00001572,-0.00000372,-0.00030188,0.00003476,0.00001349,-0.00095963,-
 0.00000088,0.00000067,0.00013153,0.00000174,0.00000002,-0.00003638,-0.
 00000256,0.00000607,0.00022432,0.00002001,-0.00003305,-0.00367193,-0.0
 0001034,-0.00000449,-0.00005459,0.00264943,-0.00300347,0.02378530,0.00
 015767,-0.00004416,0.00000073,-0.00003712,0.00003895,-0.00000023,-0.00
 010371,-0.00000175,-0.00000028,0.00000980,0.00000505,0.,0.00013386,-0.
 00003491,0.00000039,0.00017793,0.00003706,0.00000036,-0.00002443,0.000
 01768,-0.00000020,-0.00002124,-0.00001660,0.,-0.00044872,-0.00004050,-
 0.00000102,-0.00001941,0.00004589,-0.00000032,0.00002668,-0.00005221,0
 .00000039,-0.00011899,-0.00000494,-0.00000037,0.00009879,0.00001173,0.
 00000025,0.00048339,0.00057726,-0.00000236,-0.00099016,-0.00068724,0.0
 0000204,-0.00399947,-0.00548990,0.00000698,-0.00118589,0.00150952,-0.0
 0001919,0.00119998,0.00024657,0.00000221,-0.00095955,0.00085431,-0.000
 00685,0.00159955,0.00193318,-0.00000555,-0.03384266,0.03561828,-0.0002
 8763,0.00129275,-0.00019988,0.00000701,0.00024283,-0.00001947,0.000004
 37,0.00008770,0.00005218,-0.00000124,0.00040326,0.00012189,0.00000061,
 0.00144112,-0.00060278,0.00000021,-0.00001052,0.00013088,-0.00000096,0
 .00004245,0.00005887,-0.00000040,-0.00000136,0.00010933,-0.00000046,0.
 00019251,-0.00004703,0.00000335,-0.00037396,-0.00023746,0.00000148,-0.
 22365486,0.20235170,-0.00182929,0.25820179,-0.00010353,0.00003329,-0.0
 0000050,0.00002446,-0.00003580,0.00000008,0.00008382,-0.00000931,0.000
 00026,-0.00000735,-0.00000153,0.,-0.00004434,0.00002584,0.00000011,-0.
 00014544,-0.00000690,-0.00000045,-0.00000492,-0.00000101,0.00000004,-0
 .00000931,-0.00000528,0.00000005,0.00032269,-0.00005518,0.00000106,0.0
 0000621,-0.00000942,0.00000007,-0.00000467,0.00000902,-0.00000009,0.00
 006076,0.00000462,0.00000021,-0.00004305,-0.00000779,-0.00000011,-0.00
 055070,-0.00058692,0.00000270,0.00128349,0.00022320,0.00000046,-0.0049
 6642,0.00045304,0.00000326,0.00131827,0.00119358,0.00001024,-0.0013921
 3,-0.00049971,-0.00000131,0.00041125,0.00009113,-0.00000092,-0.0023559
 1,-0.00231750,0.00000505,-0.00727353,0.01330297,-0.00013140,-0.0081424
 1,0.00090342,-0.00003378,0.00221468,-0.00089958,0.00000556,-0.00010079
 ,0.00056571,-0.00000130,0.00041955,-0.00008979,0.00000173,0.00332332,-
 0.00372710,0.00004527,-0.00009264,-0.00004842,0.00000033,0.00029681,0.
 00007484,0.00000086,-0.00013744,0.00007103,-0.00000111,-0.00019726,0.0
 0022669,-0.00000646,-0.00013491,-0.00002488,-0.00000265,0.25218293,-0.
 33237718,0.00264676,-0.23624149,0.32352491,0.00000106,-0.00000032,0.00
 000110,-0.00000015,0.00000013,-0.00003443,-0.00000076,0.,-0.00000938,0
 .00000006,0.00000004,0.00000280,0.00000045,0.00000014,0.00006953,0.000
 00139,0.00000011,-0.00000690,-0.00000008,0.00000011,0.00000908,-0.0000
 0004,0.00000003,0.00000872,-0.00000306,-0.00000006,-0.00004403,-0.0000
 0009,0.00000019,-0.00000103,0.00000012,-0.00000024,-0.00000501,-0.0000
 0074,0.00000001,0.00000924,0.00000056,0.00000006,-0.00000434,0.0000039
 8,0.00000616,0.00019325,-0.00000903,-0.00000560,-0.00039653,0.00000411
 ,0.00000163,0.00374105,-0.00001803,0.00001082,0.00228262,0.00001140,0.
 00000372,0.00003128,-0.00000438,0.00000048,-0.00029867,0.00001864,0.00
 001832,-0.00013058,-0.00004478,0.00000141,-0.00594891,0.00005183,-0.00
 000916,-0.00061286,-0.00000822,-0.00000137,-0.00113132,-0.00000038,-0.
 00000081,0.00039253,-0.00000106,0.00000080,-0.00001277,-0.00002191,0.0
 0003307,0.00246875,0.00000030,0.00000102,0.00006055,-0.00000174,0.0000
 0012,0.00006401,0.00000093,-0.00000034,-0.00005083,0.00000420,-0.00000
 599,-0.00081038,0.00000091,-0.00000296,-0.00041997,-0.00211147,0.00249
 253,-0.00245778,0.00212596,-0.00254404,0.00304121\\-0.00000008,0.00000
 024,0.00000007,-0.00000002,-0.00000015,-0.00000014,0.00000016,-0.00000
 006,0.00000003,-0.00000002,0.00000002,0.,-0.00000019,0.00000003,-0.000
 00002,-0.00000031,0.,-0.00000007,-0.00000005,0.00000005,0.,0.,0.,0.,0.
 00000051,0.00000008,0.00000018,0.00000014,0.00000014,0.00000004,0.,0.,
 0.,0.00000006,-0.00000010,-0.00000004,-0.00000004,0.00000010,0.0000000
 2,-0.00000036,0.00000031,-0.00000015,0.00000029,-0.00000026,0.00000028
 ,0.00000056,-0.00000009,0.00000013,-0.00000076,-0.00000024,0.00000023,
 -0.00000002,0.00000002,-0.00000057,0.00000049,-0.00000084,-0.00000009,
 -0.00000026,-0.00000040,0.00000011,-0.00000103,0.00000054,-0.00000010,
 -0.00000011,0.00000018,-0.00000019,-0.00000043,-0.00000041,-0.00000010
 ,0.00000038,-0.00000021,0.00000011,-0.00000033,0.00000059,0.00000019,-
 0.00000008,-0.00000002,0.00000021,0.00000005,-0.00000005,0.00000009,0.
 00000011,0.,-0.00000016,-0.00000001,0.,0.,-0.00000004,0.00000006,-0.00
 000012,0.00000032,0.00000018,0.00000009,0.00000138,0.00000009,-0.00000
 022,-0.00000030,0.00000020,0.00000017\\\@


 ... I FELL INTO A REVERIE ... THE ATOMS WERE GAMBOLING BEFORE MY EYES
 ... I SAW HOW TWO SMALL ONES UNITED TO FORM A PAIR;
 HOW THE LARGER ONES SEIZED TWO OF THE SMALLER ONES;
 HOW STILL LARGER ONES KEPT HOLD OF THREE OR FOUR
 SMALLER ONES ... I SAW HOW THE LARGER ONES FORMED A CHAIN ...
 THIS WAS THE ORIGIN OF THE STRUCTURE THEORY.

                                   -- C.F.KEKULE VON STRADONITZ
 Job cpu time:       0 days 10 hours  5 minutes 50.7 seconds.
 File lengths (MBytes):  RWF=    726 Int=      0 D2E=      0 Chk=     18 Scr=      1
 Normal termination of Gaussian 09 at Sat Feb  5 16:13:38 2022.
