 Entering Gaussian System, Link 0=/home/madghost/g03/g03/g03
 Input=2c.gjf
 Output=2c.log
 Initial command:
 /home/madghost/g03/g03/l1.exe /scr/pogonin/2c/Gau-10823.inp -scrdir=/scr/pogonin/2c/
 Entering Link 1 = /home/madghost/g03/g03/l1.exe PID=     10825.
  
 Copyright (c) 1988,1990,1992,1993,1995,1998,2003,2004, Gaussian, Inc.
                  All Rights Reserved.
  
 This is the Gaussian(R) 03 program.  It is based on the
 the Gaussian(R) 98 system (copyright 1998, Gaussian, Inc.),
 the Gaussian(R) 94 system (copyright 1995, Gaussian, Inc.),
 the Gaussian 92(TM) system (copyright 1992, Gaussian, Inc.),
 the Gaussian 90(TM) system (copyright 1990, Gaussian, Inc.),
 the Gaussian 88(TM) system (copyright 1988, Gaussian, Inc.),
 the Gaussian 86(TM) system (copyright 1986, Carnegie Mellon
 University), and the Gaussian 82(TM) system (copyright 1983,
 Carnegie Mellon University). Gaussian is a federally registered
 trademark of Gaussian, Inc.
  
 This software contains proprietary and confidential information,
 including trade secrets, belonging to Gaussian, Inc.
  
 This software is provided under written license and may be
 used, copied, transmitted, or stored only in accord with that
 written license.
  
 The following legend is applicable only to US Government
 contracts under FAR:
  
                    RESTRICTED RIGHTS LEGEND
  
 Use, reproduction and disclosure by the US Government is
 subject to restrictions as set forth in subparagraphs (a)
 and (c) of the Commercial Computer Software - Restricted
 Rights clause in FAR 52.227-19.
  
 Gaussian, Inc.
 340 Quinnipiac St., Bldg. 40, Wallingford CT 06492
  
  
 ---------------------------------------------------------------
 Warning -- This program may not be used in any manner that
 competes with the business of Gaussian, Inc. or will provide
 assistance to any competitor of Gaussian, Inc.  The licensee
 of this program is prohibited from giving any competitor of
 Gaussian, Inc. access to this program.  By using this program,
 the user acknowledges that Gaussian, Inc. is engaged in the
 business of creating and licensing software in the field of
 computational chemistry and represents and warrants to the
 licensee that it is not a competitor of Gaussian, Inc. and that
 it will not use this program in any manner prohibited above.
 ---------------------------------------------------------------
  

 Cite this work as:
 Gaussian 03, Revision D.02,
 M. J. Frisch, G. W. Trucks, H. B. Schlegel, G. E. Scuseria, 
 M. A. Robb, J. R. Cheeseman, J. A. Montgomery, Jr., T. Vreven, 
 K. N. Kudin, J. C. Burant, J. M. Millam, S. S. Iyengar, J. Tomasi, 
 V. Barone, B. Mennucci, M. Cossi, G. Scalmani, N. Rega, 
 G. A. Petersson, H. Nakatsuji, M. Hada, M. Ehara, K. Toyota, 
 R. Fukuda, J. Hasegawa, M. Ishida, T. Nakajima, Y. Honda, O. Kitao, 
 H. Nakai, M. Klene, X. Li, J. E. Knox, H. P. Hratchian, J. B. Cross, 
 V. Bakken, C. Adamo, J. Jaramillo, R. Gomperts, R. E. Stratmann, 
 O. Yazyev, A. J. Austin, R. Cammi, C. Pomelli, J. W. Ochterski, 
 P. Y. Ayala, K. Morokuma, G. A. Voth, P. Salvador, J. J. Dannenberg, 
 V. G. Zakrzewski, S. Dapprich, A. D. Daniels, M. C. Strain, 
 O. Farkas, D. K. Malick, A. D. Rabuck, K. Raghavachari, 
 J. B. Foresman, J. V. Ortiz, Q. Cui, A. G. Baboul, S. Clifford, 
 J. Cioslowski, B. B. Stefanov, G. Liu, A. Liashenko, P. Piskorz, 
 I. Komaromi, R. L. Martin, D. J. Fox, T. Keith, M. A. Al-Laham, 
 C. Y. Peng, A. Nanayakkara, M. Challacombe, P. M. W. Gill, 
 B. Johnson, W. Chen, M. W. Wong, C. Gonzalez, and J. A. Pople, 
 Gaussian, Inc., Wallingford CT, 2004.
 
 ******************************************
 Gaussian 03:  EM64T-G03RevD.02  1-Mar-2006
                18-Jan-2022 
 ******************************************
 %Chk=2c
 % nproc=8
 Will use up to    8 processors via shared memory.
 % mem=18000mb
 ----------------------------------------------------
 #P b3lyp/gen opt=tight integral(Grid=ultrafine) freq
 ----------------------------------------------------
 1/7=10,14=-1,18=20,26=3,38=1/1,3;
 2/9=110,17=6,18=5,40=1/2;
 3/5=7,11=2,16=1,25=1,30=1,74=-5,75=5/1,2,3;
 4//1;
 5/5=2,38=5/2;
 6/7=2,8=2,9=2,10=2,28=1/1;
 7//1,2,3,16;
 1/14=-1,18=20/3(3);
 2/9=110/2;
 6/7=2,8=2,9=2,10=2,19=2,28=1/1;
 99//99;
 2/9=110/2;
 3/5=7,6=1,11=2,16=1,25=1,30=1,74=-5,75=5,82=7/1,2,3;
 4/5=5,16=3/1;
 5/5=2,38=5/2;
 7//1,2,3,16;
 1/14=-1,18=20/3(-5);
 2/9=110/2;
 6/7=2,8=2,9=2,10=2,19=2,28=1/1;
 99/9=1/99;
 Leave Link    1 at Tue Jan 18 02:34:00 2022, MaxMem= 2359296000 cpu:       0.1
 (Enter /home/madghost/g03/g03/l101.exe)
 ----------------------------------------------------------------------
 6-31++G** 6-31G + diffuse and polarization functions on all atoms Data
  from Gaus
 ----------------------------------------------------------------------
 Symbolic Z-matrix:
 Charge =  0 Multiplicity = 1
 6                     4.21227  -0.94435   0.00003 
 6                     4.00627   0.45735  -0.00005 
 6                     3.09471  -1.79966   0.00009 
 1                     3.2566   -2.87236   0.00015 
 6                     2.70364   0.96751  -0.00007 
 6                     1.80471  -1.28848   0.00007 
 1                     2.54363   2.04016  -0.00013 
 1                     0.94803  -1.95078   0.00012 
 6                     1.59869   0.10462  -0.00001 
 6                     5.11362   1.36952  -0.00009 
 7                     5.99163   2.13232   0.00002 
 6                     5.52951  -1.5045    0.00003 
 7                     6.58616  -1.99237  -0.00006 
 7                     0.33273   0.7214   -0.00004 
 7                    -0.67368  -0.07346   0.00001 
 6                    -3.47592   2.40647   0.00001 
 6                    -2.15294   1.89597   0.00003 
 6                    -1.92483   0.49156   0.00002 
 6                    -3.0574   -0.41529   0.00001 
 6                    -4.37791   0.12869  -0.00001 
 6                    -4.54525   1.54721  -0.00001 
 6                    -5.49581  -0.74352  -0.00003 
 6                    -5.32287  -2.11374  -0.00004 
 6                    -4.01712  -2.65079  -0.00002 
 6                    -2.90795  -1.82241  0. 
 1                    -6.4941   -0.31364  -0.00005 
 1                    -6.1834   -2.77567  -0.00005 
 1                    -3.87986  -3.72838  -0.00002 
 1                    -1.91032  -2.24425   0.00001 
 1                    -3.60403   3.48367   0.00001 
 1                    -1.31437   2.57655   0.00005 
 8                    -5.87808   2.09232  -0.00004 
 1                    -5.82339   3.0569   -0.00004 
 
                    Isotopes and Nuclear Properties:
 (Nuclear quadrupole moments (NQMom) in fm**2, nuclear magnetic moments (NMagM)
  in nuclear magnetons)

  Atom         1           2           3           4           5           6           7           8           9          10
 IAtWgt=          12          12          12           1          12          12           1           1          12          12
 AtmWgt=  12.0000000  12.0000000  12.0000000   1.0078250  12.0000000  12.0000000   1.0078250   1.0078250  12.0000000  12.0000000
 NucSpn=           0           0           0           1           0           0           1           1           0           0
 AtZEff=   0.0000000   0.0000000   0.0000000   0.0000000   0.0000000   0.0000000   0.0000000   0.0000000   0.0000000   0.0000000
 NQMom=    0.0000000   0.0000000   0.0000000   0.0000000   0.0000000   0.0000000   0.0000000   0.0000000   0.0000000   0.0000000
 NMagM=    0.0000000   0.0000000   0.0000000   2.7928460   0.0000000   0.0000000   2.7928460   2.7928460   0.0000000   0.0000000

  Atom        11          12          13          14          15          16          17          18          19          20
 IAtWgt=          14          12          14          14          14          12          12          12          12          12
 AtmWgt=  14.0030740  12.0000000  14.0030740  14.0030740  14.0030740  12.0000000  12.0000000  12.0000000  12.0000000  12.0000000
 NucSpn=           2           0           2           2           2           0           0           0           0           0
 AtZEff=   0.0000000   0.0000000   0.0000000   0.0000000   0.0000000   0.0000000   0.0000000   0.0000000   0.0000000   0.0000000
 NQMom=    2.0440000   0.0000000   2.0440000   2.0440000   2.0440000   0.0000000   0.0000000   0.0000000   0.0000000   0.0000000
 NMagM=    0.4037610   0.0000000   0.4037610   0.4037610   0.4037610   0.0000000   0.0000000   0.0000000   0.0000000   0.0000000

  Atom        21          22          23          24          25          26          27          28          29          30
 IAtWgt=          12          12          12          12          12           1           1           1           1           1
 AtmWgt=  12.0000000  12.0000000  12.0000000  12.0000000  12.0000000   1.0078250   1.0078250   1.0078250   1.0078250   1.0078250
 NucSpn=           0           0           0           0           0           1           1           1           1           1
 AtZEff=   0.0000000   0.0000000   0.0000000   0.0000000   0.0000000   0.0000000   0.0000000   0.0000000   0.0000000   0.0000000
 NQMom=    0.0000000   0.0000000   0.0000000   0.0000000   0.0000000   0.0000000   0.0000000   0.0000000   0.0000000   0.0000000
 NMagM=    0.0000000   0.0000000   0.0000000   0.0000000   0.0000000   2.7928460   2.7928460   2.7928460   2.7928460   2.7928460

  Atom        31          32          33
 IAtWgt=           1          16           1
 AtmWgt=   1.0078250  15.9949146   1.0078250
 NucSpn=           1           0           1
 AtZEff=   0.0000000   0.0000000   0.0000000
 NQMom=    0.0000000   0.0000000   0.0000000
 NMagM=    2.7928460   0.0000000   2.7928460
 Leave Link  101 at Tue Jan 18 02:34:01 2022, MaxMem= 2359296000 cpu:       0.0
 (Enter /home/madghost/g03/g03/l103.exe)

 GradGradGradGradGradGradGradGradGradGradGradGradGradGradGradGradGradGrad
 Berny optimization.
 Initialization pass.
                           ----------------------------
                           !    Initial Parameters    !
                           ! (Angstroms and Degrees)  !
 --------------------------                            --------------------------
 ! Name  Definition              Value          Derivative Info.                !
 --------------------------------------------------------------------------------
 ! R1    R(1,2)                  1.4168         estimate D2E/DX2                !
 ! R2    R(1,3)                  1.4073         estimate D2E/DX2                !
 ! R3    R(1,12)                 1.4314         estimate D2E/DX2                !
 ! R4    R(2,5)                  1.399          estimate D2E/DX2                !
 ! R5    R(2,10)                 1.4347         estimate D2E/DX2                !
 ! R6    R(3,4)                  1.0848         estimate D2E/DX2                !
 ! R7    R(3,6)                  1.3876         estimate D2E/DX2                !
 ! R8    R(5,7)                  1.0845         estimate D2E/DX2                !
 ! R9    R(5,9)                  1.402          estimate D2E/DX2                !
 ! R10   R(6,8)                  1.0828         estimate D2E/DX2                !
 ! R11   R(6,9)                  1.4083         estimate D2E/DX2                !
 ! R12   R(9,14)                 1.4082         estimate D2E/DX2                !
 ! R13   R(10,11)                1.1631         estimate D2E/DX2                !
 ! R14   R(12,13)                1.1638         estimate D2E/DX2                !
 ! R15   R(14,15)                1.2824         estimate D2E/DX2                !
 ! R16   R(15,18)                1.3728         estimate D2E/DX2                !
 ! R17   R(16,17)                1.4181         estimate D2E/DX2                !
 ! R18   R(16,21)                1.3718         estimate D2E/DX2                !
 ! R19   R(16,30)                1.0848         estimate D2E/DX2                !
 ! R20   R(17,18)                1.4228         estimate D2E/DX2                !
 ! R21   R(17,31)                1.08           estimate D2E/DX2                !
 ! R22   R(18,19)                1.4509         estimate D2E/DX2                !
 ! R23   R(19,20)                1.4282         estimate D2E/DX2                !
 ! R24   R(19,25)                1.415          estimate D2E/DX2                !
 ! R25   R(20,21)                1.4284         estimate D2E/DX2                !
 ! R26   R(20,22)                1.4179         estimate D2E/DX2                !
 ! R27   R(21,32)                1.44           estimate D2E/DX2                !
 ! R28   R(22,23)                1.3811         estimate D2E/DX2                !
 ! R29   R(22,26)                1.0869         estimate D2E/DX2                !
 ! R30   R(23,24)                1.4119         estimate D2E/DX2                !
 ! R31   R(23,27)                1.0857         estimate D2E/DX2                !
 ! R32   R(24,25)                1.3844         estimate D2E/DX2                !
 ! R33   R(24,28)                1.0863         estimate D2E/DX2                !
 ! R34   R(25,29)                1.0831         estimate D2E/DX2                !
 ! R35   R(32,33)                0.9661         estimate D2E/DX2                !
 ! A1    A(2,1,3)              119.0673         estimate D2E/DX2                !
 ! A2    A(2,1,12)             121.3986         estimate D2E/DX2                !
 ! A3    A(3,1,12)             119.5341         estimate D2E/DX2                !
 ! A4    A(1,2,5)              119.7481         estimate D2E/DX2                !
 ! A5    A(1,2,10)             121.1186         estimate D2E/DX2                !
 ! A6    A(5,2,10)             119.1333         estimate D2E/DX2                !
 ! A7    A(1,3,4)              118.8456         estimate D2E/DX2                !
 ! A8    A(1,3,6)              120.9551         estimate D2E/DX2                !
 ! A9    A(4,3,6)              120.1993         estimate D2E/DX2                !
 ! A10   A(2,5,7)              119.8718         estimate D2E/DX2                !
 ! A11   A(2,5,9)              120.6256         estimate D2E/DX2                !
 ! A12   A(7,5,9)              119.5026         estimate D2E/DX2                !
 ! A13   A(3,6,8)              120.6758         estimate D2E/DX2                !
 ! A14   A(3,6,9)              120.029          estimate D2E/DX2                !
 ! A15   A(8,6,9)              119.2951         estimate D2E/DX2                !
 ! A16   A(5,9,6)              119.5748         estimate D2E/DX2                !
 ! A17   A(5,9,14)             116.0372         estimate D2E/DX2                !
 ! A18   A(6,9,14)             124.388          estimate D2E/DX2                !
 ! A19   A(9,14,15)            115.7229         estimate D2E/DX2                !
 ! A20   A(14,15,18)           117.3946         estimate D2E/DX2                !
 ! A21   A(17,16,21)           120.1159         estimate D2E/DX2                !
 ! A22   A(17,16,30)           117.883          estimate D2E/DX2                !
 ! A23   A(21,16,30)           122.0011         estimate D2E/DX2                !
 ! A24   A(16,17,18)           120.3264         estimate D2E/DX2                !
 ! A25   A(16,17,31)           119.8368         estimate D2E/DX2                !
 ! A26   A(18,17,31)           119.8368         estimate D2E/DX2                !
 ! A27   A(15,18,17)           123.5299         estimate D2E/DX2                !
 ! A28   A(15,18,19)           117.0119         estimate D2E/DX2                !
 ! A29   A(17,18,19)           119.4582         estimate D2E/DX2                !
 ! A30   A(18,19,20)           118.927          estimate D2E/DX2                !
 ! A31   A(18,19,25)           122.6213         estimate D2E/DX2                !
 ! A32   A(20,19,25)           118.4517         estimate D2E/DX2                !
 ! A33   A(19,20,21)           119.1169         estimate D2E/DX2                !
 ! A34   A(19,20,22)           119.6492         estimate D2E/DX2                !
 ! A35   A(21,20,22)           121.2339         estimate D2E/DX2                !
 ! A36   A(16,21,20)           122.0557         estimate D2E/DX2                !
 ! A37   A(16,21,32)           118.9721         estimate D2E/DX2                !
 ! A38   A(20,21,32)           118.9721         estimate D2E/DX2                !
 ! A39   A(20,22,23)           120.7683         estimate D2E/DX2                !
 ! A40   A(20,22,26)           118.7405         estimate D2E/DX2                !
 ! A41   A(23,22,26)           120.4912         estimate D2E/DX2                !
 ! A42   A(22,23,24)           119.5508         estimate D2E/DX2                !
 ! A43   A(22,23,27)           120.3742         estimate D2E/DX2                !
 ! A44   A(24,23,27)           120.075          estimate D2E/DX2                !
 ! A45   A(23,24,25)           120.8886         estimate D2E/DX2                !
 ! A46   A(23,24,28)           119.6161         estimate D2E/DX2                !
 ! A47   A(25,24,28)           119.4953         estimate D2E/DX2                !
 ! A48   A(19,25,24)           120.6914         estimate D2E/DX2                !
 ! A49   A(19,25,29)           118.9836         estimate D2E/DX2                !
 ! A50   A(24,25,29)           120.325          estimate D2E/DX2                !
 ! A51   A(21,32,33)           108.9987         estimate D2E/DX2                !
 ! A52   L(2,10,11,5,-1)       178.4958         estimate D2E/DX2                !
 ! A53   L(1,12,13,3,-1)       178.2544         estimate D2E/DX2                !
 ! A54   L(2,10,11,5,-2)       179.9872         estimate D2E/DX2                !
 ! A55   L(1,12,13,3,-2)       179.9914         estimate D2E/DX2                !
 ! D1    D(3,1,2,5)             -0.0008         estimate D2E/DX2                !
 ! D2    D(3,1,2,10)           179.9987         estimate D2E/DX2                !
 ! D3    D(12,1,2,5)           179.9989         estimate D2E/DX2                !
 ! D4    D(12,1,2,10)           -0.0015         estimate D2E/DX2                !
 ! D5    D(2,1,3,4)           -179.9996         estimate D2E/DX2                !
 ! D6    D(2,1,3,6)              0.0006         estimate D2E/DX2                !
 ! D7    D(12,1,3,4)             0.0007         estimate D2E/DX2                !
 ! D8    D(12,1,3,6)          -179.9991         estimate D2E/DX2                !
 ! D9    D(1,2,5,7)           -179.9996         estimate D2E/DX2                !
 ! D10   D(1,2,5,9)              0.0006         estimate D2E/DX2                !
 ! D11   D(10,2,5,7)             0.0008         estimate D2E/DX2                !
 ! D12   D(10,2,5,9)          -179.999          estimate D2E/DX2                !
 ! D13   D(1,3,6,8)            179.9999         estimate D2E/DX2                !
 ! D14   D(1,3,6,9)             -0.0001         estimate D2E/DX2                !
 ! D15   D(4,3,6,8)              0.0            estimate D2E/DX2                !
 ! D16   D(4,3,6,9)           -179.9999         estimate D2E/DX2                !
 ! D17   D(2,5,9,6)             -0.0001         estimate D2E/DX2                !
 ! D18   D(2,5,9,14)           179.9999         estimate D2E/DX2                !
 ! D19   D(7,5,9,6)           -179.9999         estimate D2E/DX2                !
 ! D20   D(7,5,9,14)             0.0001         estimate D2E/DX2                !
 ! D21   D(3,6,9,5)             -0.0001         estimate D2E/DX2                !
 ! D22   D(3,6,9,14)           179.9998         estimate D2E/DX2                !
 ! D23   D(8,6,9,5)            179.9999         estimate D2E/DX2                !
 ! D24   D(8,6,9,14)            -0.0001         estimate D2E/DX2                !
 ! D25   D(5,9,14,15)          179.9995         estimate D2E/DX2                !
 ! D26   D(6,9,14,15)           -0.0004         estimate D2E/DX2                !
 ! D27   D(9,14,15,18)         179.9982         estimate D2E/DX2                !
 ! D28   D(14,15,18,17)         -0.0021         estimate D2E/DX2                !
 ! D29   D(14,15,18,19)        179.9969         estimate D2E/DX2                !
 ! D30   D(21,16,17,18)          0.0003         estimate D2E/DX2                !
 ! D31   D(21,16,17,31)       -179.9997         estimate D2E/DX2                !
 ! D32   D(30,16,17,18)       -179.9999         estimate D2E/DX2                !
 ! D33   D(30,16,17,31)          0.0001         estimate D2E/DX2                !
 ! D34   D(17,16,21,20)          0.0001         estimate D2E/DX2                !
 ! D35   D(17,16,21,32)       -179.9999         estimate D2E/DX2                !
 ! D36   D(30,16,21,20)       -179.9996         estimate D2E/DX2                !
 ! D37   D(30,16,21,32)          0.0004         estimate D2E/DX2                !
 ! D38   D(16,17,18,15)        179.9984         estimate D2E/DX2                !
 ! D39   D(16,17,18,19)         -0.0006         estimate D2E/DX2                !
 ! D40   D(31,17,18,15)         -0.0016         estimate D2E/DX2                !
 ! D41   D(31,17,18,19)        179.9994         estimate D2E/DX2                !
 ! D42   D(15,18,19,20)       -179.9986         estimate D2E/DX2                !
 ! D43   D(15,18,19,25)          0.001          estimate D2E/DX2                !
 ! D44   D(17,18,19,20)          0.0004         estimate D2E/DX2                !
 ! D45   D(17,18,19,25)       -179.9999         estimate D2E/DX2                !
 ! D46   D(18,19,20,21)          0.0            estimate D2E/DX2                !
 ! D47   D(18,19,20,22)        179.9999         estimate D2E/DX2                !
 ! D48   D(25,19,20,21)       -179.9997         estimate D2E/DX2                !
 ! D49   D(25,19,20,22)          0.0002         estimate D2E/DX2                !
 ! D50   D(18,19,25,24)       -179.9999         estimate D2E/DX2                !
 ! D51   D(18,19,25,29)          0.0002         estimate D2E/DX2                !
 ! D52   D(20,19,25,24)         -0.0002         estimate D2E/DX2                !
 ! D53   D(20,19,25,29)        179.9998         estimate D2E/DX2                !
 ! D54   D(19,20,21,16)         -0.0003         estimate D2E/DX2                !
 ! D55   D(19,20,21,32)        179.9997         estimate D2E/DX2                !
 ! D56   D(22,20,21,16)        179.9999         estimate D2E/DX2                !
 ! D57   D(22,20,21,32)         -0.0001         estimate D2E/DX2                !
 ! D58   D(19,20,22,23)         -0.0001         estimate D2E/DX2                !
 ! D59   D(19,20,22,26)       -180.0            estimate D2E/DX2                !
 ! D60   D(21,20,22,23)        179.9998         estimate D2E/DX2                !
 ! D61   D(21,20,22,26)         -0.0001         estimate D2E/DX2                !
 ! D62   D(16,21,32,33)          0.0001         estimate D2E/DX2                !
 ! D63   D(20,21,32,33)       -179.9999         estimate D2E/DX2                !
 ! D64   D(20,22,23,24)          0.0            estimate D2E/DX2                !
 ! D65   D(20,22,23,27)       -180.0            estimate D2E/DX2                !
 ! D66   D(26,22,23,24)        179.9998         estimate D2E/DX2                !
 ! D67   D(26,22,23,27)         -0.0001         estimate D2E/DX2                !
 ! D68   D(22,23,24,25)          0.0001         estimate D2E/DX2                !
 ! D69   D(22,23,24,28)       -179.9999         estimate D2E/DX2                !
 ! D70   D(27,23,24,25)        180.0            estimate D2E/DX2                !
 ! D71   D(27,23,24,28)          0.0            estimate D2E/DX2                !
 ! D72   D(23,24,25,19)          0.0001         estimate D2E/DX2                !
 ! D73   D(23,24,25,29)       -180.0            estimate D2E/DX2                !
 ! D74   D(28,24,25,19)       -180.0            estimate D2E/DX2                !
 ! D75   D(28,24,25,29)          0.0            estimate D2E/DX2                !
 --------------------------------------------------------------------------------
 Trust Radius=3.00D-01 FncErr=1.00D-07 GrdErr=1.00D-06
 Number of steps in this run= 175 maximum allowed number of steps= 198.
 GradGradGradGradGradGradGradGradGradGradGradGradGradGradGradGradGradGrad

 Leave Link  103 at Tue Jan 18 02:34:01 2022, MaxMem= 2359296000 cpu:       0.0
 (Enter /home/madghost/g03/g03/l202.exe)
                          Input orientation:                          
 ---------------------------------------------------------------------
 Center     Atomic     Atomic              Coordinates (Angstroms)
 Number     Number      Type              X           Y           Z
 ---------------------------------------------------------------------
    1          6             0        4.212274   -0.944346    0.000027
    2          6             0        4.006266    0.457349   -0.000045
    3          6             0        3.094706   -1.799663    0.000092
    4          1             0        3.256604   -2.872362    0.000154
    5          6             0        2.703641    0.967506   -0.000068
    6          6             0        1.804712   -1.288484    0.000074
    7          1             0        2.543626    2.040158   -0.000130
    8          1             0        0.948031   -1.950781    0.000122
    9          6             0        1.598689    0.104620   -0.000008
   10          6             0        5.113624    1.369520   -0.000086
   11          7             0        5.991632    2.132324    0.000015
   12          6             0        5.529513   -1.504504    0.000029
   13          7             0        6.586164   -1.992372   -0.000059
   14          7             0        0.332732    0.721402   -0.000036
   15          7             0       -0.673681   -0.073458    0.000010
   16          6             0       -3.475917    2.406470    0.000007
   17          6             0       -2.152945    1.895967    0.000029
   18          6             0       -1.924827    0.491559    0.000022
   19          6             0       -3.057399   -0.415288    0.000005
   20          6             0       -4.377908    0.128686   -0.000013
   21          6             0       -4.545249    1.547205   -0.000014
   22          6             0       -5.495813   -0.743522   -0.000032
   23          6             0       -5.322868   -2.113739   -0.000035
   24          6             0       -4.017115   -2.650789   -0.000020
   25          6             0       -2.907945   -1.822405   -0.000001
   26          1             0       -6.494104   -0.313641   -0.000046
   27          1             0       -6.183396   -2.775667   -0.000050
   28          1             0       -3.879857   -3.728383   -0.000024
   29          1             0       -1.910317   -2.244245    0.000010
   30          1             0       -3.604034    3.483668    0.000012
   31          1             0       -1.314373    2.576552    0.000051
   32          8             0       -5.878083    2.092322   -0.000038
   33          1             0       -5.823387    3.056903   -0.000037
 ---------------------------------------------------------------------
                    Distance matrix (angstroms):
                    1          2          3          4          5
     1  C    0.000000
     2  C    1.416753   0.000000
     3  C    1.407311   2.434141   0.000000
     4  H    2.151871   3.413059   1.084848   0.000000
     5  C    2.435396   1.398961   2.794666   3.879479   0.000000
     6  C    2.432033   2.809764   1.387584   2.148641   2.428490
     7  H    3.419306   2.155133   3.879164   4.963989   1.084522
     8  H    3.415874   3.892543   2.151988   2.485723   3.405667
     9  C    2.816231   2.433279   2.421644   3.407507   1.401960
    10  C    2.483225   1.434677   3.757626   4.630560   2.443283
    11  N    3.554154   2.597541   4.883923   5.703267   3.488221
    12  C    1.431396   2.483777   2.452632   2.652763   3.754515
    13  N    2.594940   3.557669   3.496772   3.443886   4.882096
    14  N    4.222033   3.683012   3.739555   4.632944   2.383648
    15  N    4.962963   4.709953   4.144940   4.825039   3.534107
    16  C    8.386671   7.731891   7.801579   8.555285   6.344884
    17  C    6.970179   6.324990   6.418374   7.211115   4.944539
    18  C    6.302843   5.931192   5.517736   6.177636   4.652875
    19  C    7.288899   7.117363   6.305941   6.775238   5.924669
    20  C    8.656941   8.390613   7.717415   8.203174   7.131056
    21  C    9.105055   8.620684   8.340890   8.966687   7.272033
    22  C    9.710164   9.577661   8.655198   9.007595   8.376077
    23  C    9.606582   9.676943   8.423431   8.612947   8.597611
    24  C    8.404451   8.604369   7.162570   7.277093   7.632864
    25  C    7.174155   7.280357   6.002694   6.253325   6.266857
    26  H   10.724939  10.528637   9.703275  10.080841   9.286541
    27  H   10.555742  10.690257   9.329296   9.440495   9.643172
    28  H    8.557654   8.928118   7.236331   7.187618   8.086645
    29  H    6.259062   6.504196   5.024730   5.204960   5.621739
    30  H    8.983428   8.189949   8.531512   9.352405   6.791011
    31  H    6.552904   5.727148   6.212185   7.112278   4.328217
    32  O   10.537394  10.018657   9.780516  10.396663   8.655126
    33  H   10.803910  10.167584  10.154733  10.844465   8.779281
                    6          7          8          9         10
     6  C    0.000000
     7  H    3.409670   0.000000
     8  H    1.082839   4.298083   0.000000
     9  C    1.408256   2.153883   2.155929   0.000000
    10  C    4.244277   2.656058   5.326966   3.735604   0.000000
    11  N    5.406683   3.449238   6.489195   4.838340   1.163086
    12  C    3.731060   4.634668   4.603166   4.247430   2.903959
    13  N    4.832985   5.709940   5.638286   5.410387   3.670244
    14  N    2.491258   2.574329   2.742108   1.408214   4.824623
    15  N    2.760203   3.849472   2.480784   2.279337   5.964485
    16  C    6.444977   6.030678   6.209424   5.572265   8.651906
    17  C    5.079742   4.698784   4.941004   4.157365   7.285614
    18  C    4.132555   4.729189   3.770721   3.544698   7.092997
    19  C    4.939898   6.115611   4.289663   4.685025   8.363681
    20  C    6.342962   7.180624   5.717500   5.976645   9.572296
    21  C    6.954361   7.105994   6.512452   6.311024   9.660507
    22  C    7.320837   8.507729   6.555959   7.145019  10.817814
    23  C    7.175196   8.895875   6.273016   7.268361  11.002430
    24  C    5.979092   8.065253   5.014248   6.255360   9.976637
    25  C    4.742806   6.681244   3.858112   4.901344   8.633305
    26  H    8.355876   9.339215   7.620079   8.103594  11.729125
    27  H    8.125367   9.967602   7.178975   8.298006  12.033505
    28  H    6.186068   8.633493   5.144742   6.686283  10.337858
    29  H    3.836003   6.180107   2.873373   4.222593   7.899053
    30  H    7.213042   6.314859   7.089043   6.203732   8.970350
    31  H    4.966608   3.895109   5.061148   3.820521   6.540342
    32  O    8.393759   8.421871   7.933632   7.736477  11.015447
    33  H    8.778968   8.428563   8.421936   7.987690  11.066412
                   11         12         13         14         15
    11  N    0.000000
    12  C    3.666070   0.000000
    13  N    4.167324   1.163841   0.000000
    14  N    5.832139   5.653423   6.816889   0.000000
    15  N    7.020817   6.366122   7.509166   1.282447   0.000000
    16  C    9.471517   9.818018  10.981588   4.164764   3.742001
    17  C    8.148006   8.401391   9.565104   2.749217   2.463099
    18  C    8.084704   7.716959   8.866052   2.269229   1.372811
    19  C    9.400813   8.655718   9.771668   3.575619   2.408103
    20  C   10.561341  10.041130  11.167353   4.747783   3.709739
    21  C   10.553114  10.526811  11.680623   4.947388   4.197093
    22  C   11.841954  11.051557  12.146349   6.009820   4.868464
    23  C   12.084989  10.869468  11.909650   6.326439   5.077173
    24  C   11.092934   9.615200  10.623702   5.503893   4.221515
    25  C    9.738704   8.443445   9.495630   4.119823   2.837385
    26  H   12.723064  12.082447  13.187553   6.904854   5.825377
    27  H   13.127059  11.781685  12.793561   7.395229   6.136684
    28  H   11.480165   9.668603  10.609021   6.127519   4.861897
    29  H    9.033004   7.476516   8.500213   3.718377   2.498316
    30  H    9.690353  10.406899  11.568368   4.809183   4.608700
    31  H    7.319497   7.968299   9.126530   2.480834   2.726360
    32  O   11.869783  11.961204  13.116485   6.360318   5.637057
    33  H   11.851140  12.234981  13.397467   6.584251   6.026494
                   16         17         18         19         20
    16  C    0.000000
    17  C    1.418051   0.000000
    18  C    2.464298   1.422814   0.000000
    19  C    2.852626   2.481922   1.450893   0.000000
    20  C    2.449875   2.841433   2.479775   1.428164   0.000000
    21  C    1.371790   2.417592   2.825066   2.462738   1.428355
    22  C    3.741982   4.259304   3.778540   2.460407   1.417906
    23  C    4.882982   5.111375   4.281852   2.831446   2.433397
    24  C    5.086134   4.914074   3.775185   2.432801   2.802794
    25  C    4.266846   3.794248   2.514150   1.415032   2.442856
    26  H    4.063060   4.871142   4.639681   3.438208   2.161929
    27  H    5.846793   6.169984   5.367511   3.917046   3.419803
    28  H    6.148137   5.883497   4.650812   3.413654   3.889092
    29  H    4.907163   4.147315   2.735842   2.158907   3.423420
    30  H    1.084790   2.150919   3.431101   3.937089   3.443078
    31  H    2.168225   1.080000   2.172522   3.462550   3.921390
    32  O    2.422621   3.730310   4.265053   3.774171   2.471112
    33  H    2.435914   3.849664   4.666879   4.439234   3.265557
                   21         22         23         24         25
    21  C    0.000000
    22  C    2.480121   0.000000
    23  C    3.742620   1.381088   0.000000
    24  C    4.231085   2.413341   1.411883   0.000000
    25  C    3.746336   2.803756   2.432433   1.384369   0.000000
    26  H    2.694584   1.086914   2.147591   3.405545   3.890618
    27  H    4.622851   2.145317   1.085660   2.169877   3.411347
    28  H    5.317384   3.394217   2.165492   1.086300   2.139478
    29  H    4.617138   3.886895   3.415046   2.145664   1.083148
    30  H    2.153085   4.631195   5.855370   6.148349   5.351537
    31  H    3.390887   5.339226   6.169835   5.884719   4.678707
    32  O    1.440000   2.861493   4.242548   5.095126   4.913941
    33  H    1.978086   3.814516   5.194811   5.986682   5.683964
                   26         27         28         29         30
    26  H    0.000000
    27  H    2.481554   0.000000
    28  H    4.300552   2.492782   0.000000
    29  H    4.973765   4.305997   2.466121   0.000000
    30  H    4.772008   6.769962   7.217323   5.973078   0.000000
    31  H    5.931512   7.235582   6.806902   4.857493   2.462805
    32  O    2.483574   4.877554   6.154147   5.877839   2.665922
    33  H    3.436631   5.843670   7.058145   6.588952   2.260012
                   31         32         33
    31  H    0.000000
    32  O    4.589328   0.000000
    33  H    4.534528   0.966130   0.000000
 Stoichiometry    C18H10N4O
 Framework group  C1[X(C18H10N4O)]
 Deg. of freedom    93
 Full point group                 C1
 Largest Abelian subgroup         C1      NOp   1
 Largest concise Abelian subgroup C1      NOp   1
                         Standard orientation:                         
 ---------------------------------------------------------------------
 Center     Atomic     Atomic              Coordinates (Angstroms)
 Number     Number      Type              X           Y           Z
 ---------------------------------------------------------------------
    1          6             0       -4.498091    0.747433    0.000033
    2          6             0       -4.238709   -0.645373   -0.000039
    3          6             0       -3.413999    1.644801    0.000098
    4          1             0       -3.616741    2.710536    0.000160
    5          6             0       -2.917553   -1.105417   -0.000062
    6          6             0       -2.105427    1.183254    0.000080
    7          1             0       -2.716695   -2.171176   -0.000124
    8          1             0       -1.274661    1.877781    0.000128
    9          6             0       -1.846357   -0.200966   -0.000002
   10          6             0       -5.310427   -1.599164   -0.000080
   11          7             0       -6.158667   -2.394939    0.000021
   12          6             0       -5.835760    1.256883    0.000035
   13          7             0       -6.910270    1.704046   -0.000053
   14          7             0       -0.557771   -0.768957   -0.000030
   15          7             0        0.417556    0.063754    0.000016
   16          6             0        3.312446   -2.307360    0.000013
   17          6             0        1.970945   -1.847748    0.000035
   18          6             0        1.689365   -0.453075    0.000028
   19          6             0        2.786482    0.496358    0.000011
   20          6             0        4.126800    0.003206   -0.000007
   21          6             0        4.348186   -1.407889   -0.000008
   22          6             0        5.210584    0.917466   -0.000026
   23          6             0        4.985442    2.280079   -0.000029
   24          6             0        3.660134    2.766876   -0.000014
   25          6             0        2.583405    1.896742    0.000005
   26          1             0        6.224562    0.526019   -0.000040
   27          1             0        5.820066    2.974384   -0.000044
   28          1             0        3.481827    3.838443   -0.000018
   29          1             0        1.570397    2.280179    0.000016
   30          1             0        3.481603   -3.378880    0.000018
   31          1             0        1.158973   -2.559859    0.000057
   32          8             0        5.700864   -1.901713   -0.000032
   33          1             0        5.683041   -2.867679   -0.000031
 ---------------------------------------------------------------------
 Rotational constants (GHZ):      0.6962417      0.1005763      0.0878813
 Leave Link  202 at Tue Jan 18 02:34:01 2022, MaxMem= 2359296000 cpu:       0.0
 (Enter /home/madghost/g03/g03/l301.exe)
 General basis read from cards:  (5D, 7F)
 Centers:   4  7  8 26 27 28 29 30 31 33
 S 3 1.00
     Exponent=  1.8731136960D+01 Coefficients=  3.3494604340D-02
     Exponent=  2.8253943650D+00 Coefficients=  2.3472695350D-01
     Exponent=  6.4012169230D-01 Coefficients=  8.1375732610D-01
 S 1 1.00
     Exponent=  1.6127775880D-01 Coefficients=  1.0000000000D+00
 S 1 1.00
     Exponent=  3.6000000000D-02 Coefficients=  1.0000000000D+00
 P 1 1.00
     Exponent=  1.1000000000D+00 Coefficients=  1.0000000000D+00
 ****
 Centers:   1  2  3  5  6  9 10 12 16 17 18 19 20 21 22 23 24 25
 S 6 1.00
     Exponent=  3.0475248800D+03 Coefficients=  1.8347371320D-03
     Exponent=  4.5736951800D+02 Coefficients=  1.4037322810D-02
     Exponent=  1.0394868500D+02 Coefficients=  6.8842622260D-02
     Exponent=  2.9210155300D+01 Coefficients=  2.3218444320D-01
     Exponent=  9.2866629600D+00 Coefficients=  4.6794134840D-01
     Exponent=  3.1639269600D+00 Coefficients=  3.6231198530D-01
 SP 3 1.00
     Exponent=  7.8682723500D+00 Coefficients= -1.1933241980D-01  6.8999066590D-02
     Exponent=  1.8812885400D+00 Coefficients= -1.6085415170D-01  3.1642396100D-01
     Exponent=  5.4424925800D-01 Coefficients=  1.1434564380D+00  7.4430829090D-01
 SP 1 1.00
     Exponent=  1.6871447820D-01 Coefficients=  1.0000000000D+00  1.0000000000D+00
 SP 1 1.00
     Exponent=  4.3800000000D-02 Coefficients=  1.0000000000D+00  1.0000000000D+00
 D 1 1.00
     Exponent=  8.0000000000D-01 Coefficients=  1.0000000000D+00
 ****
 Centers:  11 13 14 15
 S 6 1.00
     Exponent=  4.1735114600D+03 Coefficients=  1.8347721600D-03
     Exponent=  6.2745791100D+02 Coefficients=  1.3994627000D-02
     Exponent=  1.4290209300D+02 Coefficients=  6.8586551810D-02
     Exponent=  4.0234329300D+01 Coefficients=  2.3224087300D-01
     Exponent=  1.2820212900D+01 Coefficients=  4.6906994810D-01
     Exponent=  4.3904370100D+00 Coefficients=  3.6045519910D-01
 SP 3 1.00
     Exponent=  1.1626361860D+01 Coefficients= -1.1496118170D-01  6.7579743880D-02
     Exponent=  2.7162798070D+00 Coefficients= -1.6911747860D-01  3.2390729590D-01
     Exponent=  7.7221839660D-01 Coefficients=  1.1458519470D+00  7.4089513980D-01
 SP 1 1.00
     Exponent=  2.1203149750D-01 Coefficients=  1.0000000000D+00  1.0000000000D+00
 SP 1 1.00
     Exponent=  6.3900000000D-02 Coefficients=  1.0000000000D+00  1.0000000000D+00
 D 1 1.00
     Exponent=  8.0000000000D-01 Coefficients=  1.0000000000D+00
 ****
 Centers:  32
 S 6 1.00
     Exponent=  5.4846716600D+03 Coefficients=  1.8310744300D-03
     Exponent=  8.2523494600D+02 Coefficients=  1.3950172200D-02
     Exponent=  1.8804695800D+02 Coefficients=  6.8445078100D-02
     Exponent=  5.2964500000D+01 Coefficients=  2.3271433600D-01
     Exponent=  1.6897570400D+01 Coefficients=  4.7019289800D-01
     Exponent=  5.7996353400D+00 Coefficients=  3.5852085300D-01
 SP 3 1.00
     Exponent=  1.5539616250D+01 Coefficients= -1.1077754950D-01  7.0874268230D-02
     Exponent=  3.5999335860D+00 Coefficients= -1.4802626270D-01  3.3975283910D-01
     Exponent=  1.0137617500D+00 Coefficients=  1.1307670150D+00  7.2715857730D-01
 SP 1 1.00
     Exponent=  2.7000582260D-01 Coefficients=  1.0000000000D+00  1.0000000000D+00
 SP 1 1.00
     Exponent=  8.4500000000D-02 Coefficients=  1.0000000000D+00  1.0000000000D+00
 D 1 1.00
     Exponent=  8.0000000000D-01 Coefficients=  1.0000000000D+00
 ****
 There are   474 symmetry adapted basis functions of A   symmetry.
 Integral buffers will be    131072 words long.
 Raffenetti 2 integral format.
 Two-electron integral symmetry is turned on.
   474 basis functions,   816 primitive gaussians,   497 cartesian basis functions
    77 alpha electrons       77 beta electrons
       nuclear repulsion energy      1567.3615454977 Hartrees.
 IExCor= 402 DFT=T Ex=B+HF Corr=LYP ExCW=0 ScaHFX=  0.200000
 ScaDFX=  0.800000  0.720000  1.000000  0.810000
 IRadAn=      5 IRanWt=     -1 IRanGd=            0 ICorTp=0
 NAtoms=   33 NActive=   33 NUniq=   33 SFac= 7.50D-01 NAtFMM=   80 NAOKFM=F Big=F
 Leave Link  301 at Tue Jan 18 02:34:02 2022, MaxMem= 2359296000 cpu:       0.0
 (Enter /home/madghost/g03/g03/l302.exe)
 NPDir=0 NMtPBC=     1 NCelOv=     1 NCel=       1 NClECP=     1 NCelD=      1
         NCelK=      1 NCelE2=     1 NClLst=     1 CellRange=     0.0.
 One-electron integrals computed using PRISM.
 NBasis=   474 RedAO= T  NBF=   474
 NBsUse=   469 1.00D-06 NBFU=   469
 Precomputing XC quadrature grid using
 IXCGrd= 2 IRadAn=           5 IRanWt=          -1 IRanGd=           0.
 NRdTot=    2844 NPtTot=      770208 NUsed=      790249 NTot=      790281
 NSgBfM=   482   482   482   482.
 Leave Link  302 at Tue Jan 18 02:34:03 2022, MaxMem= 2359296000 cpu:       2.9
 (Enter /home/madghost/g03/g03/l303.exe)
 DipDrv:  MaxL=1.
 Leave Link  303 at Tue Jan 18 02:34:03 2022, MaxMem= 2359296000 cpu:       0.0
 (Enter /home/madghost/g03/g03/l401.exe)
 Harris functional with IExCor=  402 diagonalized for initial guess.
 ExpMin= 3.60D-02 ExpMax= 5.48D+03 ExpMxC= 8.25D+02 IAcc=3 IRadAn=         5 AccDes= 0.00D+00
 HarFok:  IExCor= 402 AccDes= 0.00D+00 IRadAn=         5 IDoV=1
 ScaDFX=  1.000000  1.000000  1.000000  1.000000
 Harris En= -986.333327224079    
 Initial guess orbital symmetries:
       Occupied  (A) (A) (A) (A) (A) (A) (A) (A) (A) (A) (A) (A)
                 (A) (A) (A) (A) (A) (A) (A) (A) (A) (A) (A) (A)
                 (A) (A) (A) (A) (A) (A) (A) (A) (A) (A) (A) (A)
                 (A) (A) (A) (A) (A) (A) (A) (A) (A) (A) (A) (A)
                 (A) (A) (A) (A) (A) (A) (A) (A) (A) (A) (A) (A)
                 (A) (A) (A) (A) (A) (A) (A) (A) (A) (A) (A) (A)
                 (A) (A) (A) (A) (A)
       Virtual   (A) (A) (A) (A) (A) (A) (A) (A) (A) (A) (A) (A)
                 (A) (A) (A) (A) (A) (A) (A) (A) (A) (A) (A) (A)
                 (A) (A) (A) (A) (A) (A) (A) (A) (A) (A) (A) (A)
                 (A) (A) (A) (A) (A) (A) (A) (A) (A) (A) (A) (A)
                 (A) (A) (A) (A) (A) (A) (A) (A) (A) (A) (A) (A)
                 (A) (A) (A) (A) (A) (A) (A) (A) (A) (A) (A) (A)
                 (A) (A) (A) (A) (A) (A) (A) (A) (A) (A) (A) (A)
                 (A) (A) (A) (A) (A) (A) (A) (A) (A) (A) (A) (A)
                 (A) (A) (A) (A) (A) (A) (A) (A) (A) (A) (A) (A)
                 (A) (A) (A) (A) (A) (A) (A) (A) (A) (A) (A) (A)
                 (A) (A) (A) (A) (A) (A) (A) (A) (A) (A) (A) (A)
                 (A) (A) (A) (A) (A) (A) (A) (A) (A) (A) (A) (A)
                 (A) (A) (A) (A) (A) (A) (A) (A) (A) (A) (A) (A)
                 (A) (A) (A) (A) (A) (A) (A) (A) (A) (A) (A) (A)
                 (A) (A) (A) (A) (A) (A) (A) (A) (A) (A) (A) (A)
                 (A) (A) (A) (A) (A) (A) (A) (A) (A) (A) (A) (A)
                 (A) (A) (A) (A) (A) (A) (A) (A) (A) (A) (A) (A)
                 (A) (A) (A) (A) (A) (A) (A) (A) (A) (A) (A) (A)
                 (A) (A) (A) (A) (A) (A) (A) (A) (A) (A) (A) (A)
                 (A) (A) (A) (A) (A) (A) (A) (A) (A) (A) (A) (A)
                 (A) (A) (A) (A) (A) (A) (A) (A) (A) (A) (A) (A)
                 (A) (A) (A) (A) (A) (A) (A) (A) (A) (A) (A) (A)
                 (A) (A) (A) (A) (A) (A) (A) (A) (A) (A) (A) (A)
                 (A) (A) (A) (A) (A) (A) (A) (A) (A) (A) (A) (A)
                 (A) (A) (A) (A) (A) (A) (A) (A) (A) (A) (A) (A)
                 (A) (A) (A) (A) (A) (A) (A) (A) (A) (A) (A) (A)
                 (A) (A) (A) (A) (A) (A) (A) (A) (A) (A) (A) (A)
                 (A) (A) (A) (A) (A) (A) (A) (A) (A) (A) (A) (A)
                 (A) (A) (A) (A) (A) (A) (A) (A) (A) (A) (A) (A)
                 (A) (A) (A) (A) (A) (A) (A) (A) (A) (A) (A) (A)
                 (A) (A) (A) (A) (A) (A) (A) (A) (A) (A) (A) (A)
                 (A) (A) (A) (A) (A) (A) (A) (A) (A) (A) (A) (A)
                 (A) (A) (A) (A) (A) (A) (A) (A)
 The electronic state of the initial guess is 1-A.
 Leave Link  401 at Tue Jan 18 02:34:12 2022, MaxMem= 2359296000 cpu:      70.9
 (Enter /home/madghost/g03/g03/l502.exe)
 Closed shell SCF:
 Requested convergence on RMS density matrix=1.00D-08 within 128 cycles.
 Requested convergence on MAX density matrix=1.00D-06.
 Requested convergence on             energy=1.00D-06.
 No special actions if energy rises.
 Using DIIS extrapolation, IDIIS=  1040.
 Integral symmetry usage will be decided dynamically.
       790248 words used for storage of precomputed grid.
 IEnd=   1679292 IEndB=   1679292 NGot=2359296000 MDV=2357880855
 LenX=2357880855
 Fock matrices will be formed incrementally for  20 cycles.

 Cycle   1  Pass 1  IDiag  1:
 Petite list used in FoFDir.
 MinBra= 0 MaxBra= 2 Meth= 1.
 IRaf=       0 NMat=   1 IRICut=       1 DoRegI=T DoRafI=F ISym2E= 1 JSym2E=1.
 E= -985.660272796995    
 DIIS: error= 3.05D-02 at cycle   1 NSaved=   1.
 NSaved= 1 IEnMin= 1 EnMin= -985.660272796995     IErMin= 1 ErrMin= 3.05D-02
 ErrMax= 3.05D-02 EMaxC= 1.00D-01 BMatC= 4.32D-01 BMatP= 4.32D-01
 IDIUse=3 WtCom= 6.95D-01 WtEn= 3.05D-01
 Coeff-Com:  0.100D+01
 Coeff-En:   0.100D+01
 Coeff:      0.100D+01
 Gap=     0.164 Goal=   None    Shift=    0.000
 GapD=    0.164 DampG=1.000 DampE=0.500 DampFc=0.5000 IDamp=-1.
 Damping current iteration by 5.00D-01
 RMSDP=3.42D-02 MaxDP=2.28D+00              OVMax= 2.41D-01

 Cycle   2  Pass 1  IDiag  1:
 RMSU=  1.68D-02    CP:  1.04D+00
 E= -985.833189108119     Delta-E=       -0.172916311124 Rises=F Damp=T
 DIIS: error= 1.65D-02 at cycle   2 NSaved=   2.
 NSaved= 2 IEnMin= 2 EnMin= -985.833189108119     IErMin= 2 ErrMin= 1.65D-02
 ErrMax= 1.65D-02 EMaxC= 1.00D-01 BMatC= 5.55D-02 BMatP= 4.32D-01
 IDIUse=3 WtCom= 8.35D-01 WtEn= 1.65D-01
 Coeff-Com:  0.144D+00 0.856D+00
 Coeff-En:   0.217D+00 0.783D+00
 Coeff:      0.156D+00 0.844D+00
 Gap=     0.133 Goal=   None    Shift=    0.000
 RMSDP=2.19D-02 MaxDP=1.51D+00 DE=-1.73D-01 OVMax= 2.18D-01

 Cycle   3  Pass 1  IDiag  1:
 RMSU=  1.11D-02    CP:  7.98D-01  6.54D-01
 E= -986.012159125458     Delta-E=       -0.178970017339 Rises=F Damp=F
 DIIS: error= 2.96D-02 at cycle   3 NSaved=   3.
 NSaved= 3 IEnMin= 3 EnMin= -986.012159125458     IErMin= 2 ErrMin= 1.65D-02
 ErrMax= 2.96D-02 EMaxC= 1.00D-01 BMatC= 1.22D-01 BMatP= 5.55D-02
 IDIUse=2 WtCom= 0.00D+00 WtEn= 1.00D+00
 Coeff-En:   0.000D+00 0.704D-01 0.930D+00
 Coeff:      0.000D+00 0.704D-01 0.930D+00
 Gap=     0.157 Goal=   None    Shift=    0.000
 RMSDP=1.17D-02 MaxDP=1.06D+00 DE=-1.79D-01 OVMax= 2.77D-01

 Cycle   4  Pass 1  IDiag  1:
 RMSU=  1.04D-02    CP:  7.99D-01  6.65D-01  5.10D-01
 E= -985.400752569411     Delta-E=        0.611406556047 Rises=F Damp=F
 DIIS: error= 6.39D-02 at cycle   4 NSaved=   4.
 NSaved= 4 IEnMin= 3 EnMin= -986.012159125458     IErMin= 2 ErrMin= 1.65D-02
 ErrMax= 6.39D-02 EMaxC= 1.00D-01 BMatC= 7.45D-01 BMatP= 5.55D-02
 IDIUse=2 WtCom= 0.00D+00 WtEn= 1.00D+00
 Coeff-En:   0.000D+00 0.000D+00 0.791D+00 0.209D+00
 Coeff:      0.000D+00 0.000D+00 0.791D+00 0.209D+00
 Gap=     0.092 Goal=   None    Shift=    0.000
 RMSDP=6.08D-03 MaxDP=5.11D-01 DE= 6.11D-01 OVMax= 1.68D-01

 Cycle   5  Pass 1  IDiag  1:
 RMSU=  1.70D-03    CP:  8.03D-01  6.27D-01  7.56D-01  5.06D-01
 E= -986.070940977111     Delta-E=       -0.670188407700 Rises=F Damp=F
 DIIS: error= 2.05D-02 at cycle   5 NSaved=   5.
 NSaved= 5 IEnMin= 5 EnMin= -986.070940977111     IErMin= 2 ErrMin= 1.65D-02
 ErrMax= 2.05D-02 EMaxC= 1.00D-01 BMatC= 6.39D-02 BMatP= 5.55D-02
 IDIUse=2 WtCom= 0.00D+00 WtEn= 1.00D+00
 Coeff-En:   0.000D+00 0.000D+00 0.383D+00 0.000D+00 0.617D+00
 Coeff:      0.000D+00 0.000D+00 0.383D+00 0.000D+00 0.617D+00
 Gap=     0.104 Goal=   None    Shift=    0.000
 RMSDP=2.65D-03 MaxDP=2.05D-01 DE=-6.70D-01 OVMax= 7.44D-02

 Cycle   6  Pass 1  IDiag  1:
 RMSU=  6.43D-04    CP:  8.02D-01  6.01D-01  8.46D-01  2.86D-01  7.44D-01
 E= -986.127240381609     Delta-E=       -0.056299404498 Rises=F Damp=F
 DIIS: error= 5.05D-03 at cycle   6 NSaved=   6.
 NSaved= 6 IEnMin= 6 EnMin= -986.127240381609     IErMin= 6 ErrMin= 5.05D-03
 ErrMax= 5.05D-03 EMaxC= 1.00D-01 BMatC= 4.54D-03 BMatP= 5.55D-02
 IDIUse=3 WtCom= 9.49D-01 WtEn= 5.05D-02
 Coeff-Com: -0.482D-02-0.348D-02 0.150D+00-0.266D-01 0.414D+00 0.471D+00
 Coeff-En:   0.000D+00 0.000D+00 0.000D+00 0.000D+00 0.926D-01 0.907D+00
 Coeff:     -0.458D-02-0.331D-02 0.142D+00-0.253D-01 0.398D+00 0.493D+00
 Gap=     0.103 Goal=   None    Shift=    0.000
 RMSDP=9.56D-04 MaxDP=9.79D-02 DE=-5.63D-02 OVMax= 1.86D-02

 Cycle   7  Pass 1  IDiag  1:
 RMSU=  6.27D-04    CP:  8.07D-01  6.32D-01  8.49D-01  3.13D-01  7.21D-01
                    CP:  7.67D-01
 E= -986.131135995872     Delta-E=       -0.003895614263 Rises=F Damp=F
 DIIS: error= 8.50D-04 at cycle   7 NSaved=   7.
 NSaved= 7 IEnMin= 7 EnMin= -986.131135995872     IErMin= 7 ErrMin= 8.50D-04
 ErrMax= 8.50D-04 EMaxC= 1.00D-01 BMatC= 2.18D-04 BMatP= 4.54D-03
 IDIUse=3 WtCom= 9.92D-01 WtEn= 8.50D-03
 Coeff-Com: -0.567D-02 0.333D-02 0.504D-01-0.209D-01 0.205D+00 0.341D+00
 Coeff-Com:  0.426D+00
 Coeff-En:   0.000D+00 0.000D+00 0.000D+00 0.000D+00 0.000D+00 0.181D-01
 Coeff-En:   0.982D+00
 Coeff:     -0.562D-02 0.330D-02 0.500D-01-0.208D-01 0.204D+00 0.339D+00
 Coeff:      0.431D+00
 Gap=     0.103 Goal=   None    Shift=    0.000
 RMSDP=1.69D-04 MaxDP=1.03D-02 DE=-3.90D-03 OVMax= 4.66D-03

 Cycle   8  Pass 1  IDiag  1:
 RMSU=  1.06D-04    CP:  8.07D-01  6.28D-01  8.45D-01  3.12D-01  7.51D-01
                    CP:  7.50D-01  8.48D-01
 E= -986.131329491685     Delta-E=       -0.000193495814 Rises=F Damp=F
 DIIS: error= 1.72D-04 at cycle   8 NSaved=   8.
 NSaved= 8 IEnMin= 8 EnMin= -986.131329491685     IErMin= 8 ErrMin= 1.72D-04
 ErrMax= 1.72D-04 EMaxC= 1.00D-01 BMatC= 1.02D-05 BMatP= 2.18D-04
 IDIUse=3 WtCom= 9.98D-01 WtEn= 1.72D-03
 Coeff-Com: -0.308D-02 0.369D-02 0.207D-01-0.112D-01 0.931D-01 0.171D+00
 Coeff-Com:  0.258D+00 0.467D+00
 Coeff-En:   0.000D+00 0.000D+00 0.000D+00 0.000D+00 0.000D+00 0.000D+00
 Coeff-En:   0.000D+00 0.100D+01
 Coeff:     -0.308D-02 0.369D-02 0.207D-01-0.111D-01 0.930D-01 0.171D+00
 Coeff:      0.258D+00 0.468D+00
 Gap=     0.103 Goal=   None    Shift=    0.000
 RMSDP=8.44D-05 MaxDP=6.88D-03 DE=-1.93D-04 OVMax= 1.94D-03

 Cycle   9  Pass 1  IDiag  1:
 RMSU=  4.26D-05    CP:  8.07D-01  6.27D-01  8.44D-01  3.13D-01  7.51D-01
                    CP:  7.45D-01  7.69D-01  6.06D-01
 E= -986.131339283306     Delta-E=       -0.000009791620 Rises=F Damp=F
 DIIS: error= 8.96D-05 at cycle   9 NSaved=   9.
 NSaved= 9 IEnMin= 9 EnMin= -986.131339283306     IErMin= 9 ErrMin= 8.96D-05
 ErrMax= 8.96D-05 EMaxC= 1.00D-01 BMatC= 2.05D-06 BMatP= 1.02D-05
 IDIUse=1 WtCom= 1.00D+00 WtEn= 0.00D+00
 Coeff-Com: -0.116D-02 0.167D-02 0.325D-02-0.298D-02 0.210D-01 0.582D-01
 Coeff-Com:  0.816D-01 0.298D+00 0.541D+00
 Coeff:     -0.116D-02 0.167D-02 0.325D-02-0.298D-02 0.210D-01 0.582D-01
 Coeff:      0.816D-01 0.298D+00 0.541D+00
 Gap=     0.103 Goal=   None    Shift=    0.000
 RMSDP=1.52D-05 MaxDP=9.24D-04 DE=-9.79D-06 OVMax= 4.17D-04

 Cycle  10  Pass 1  IDiag  1:
 RMSU=  9.73D-06    CP:  8.07D-01  6.28D-01  8.44D-01  3.13D-01  7.53D-01
                    CP:  7.49D-01  7.68D-01  6.29D-01  8.19D-01
 E= -986.131341239535     Delta-E=       -0.000001956229 Rises=F Damp=F
 DIIS: error= 2.44D-05 at cycle  10 NSaved=  10.
 NSaved=10 IEnMin=10 EnMin= -986.131341239535     IErMin=10 ErrMin= 2.44D-05
 ErrMax= 2.44D-05 EMaxC= 1.00D-01 BMatC= 1.64D-07 BMatP= 2.05D-06
 IDIUse=1 WtCom= 1.00D+00 WtEn= 0.00D+00
 Coeff-Com: -0.384D-03 0.509D-03-0.110D-02-0.202D-03 0.181D-03 0.163D-01
 Coeff-Com:  0.132D-01 0.117D+00 0.298D+00 0.557D+00
 Coeff:     -0.384D-03 0.509D-03-0.110D-02-0.202D-03 0.181D-03 0.163D-01
 Coeff:      0.132D-01 0.117D+00 0.298D+00 0.557D+00
 Gap=     0.103 Goal=   None    Shift=    0.000
 RMSDP=8.57D-06 MaxDP=6.48D-04 DE=-1.96D-06 OVMax= 1.26D-04

 Cycle  11  Pass 1  IDiag  1:
 RMSU=  4.48D-06    CP:  8.07D-01  6.27D-01  8.45D-01  3.13D-01  7.53D-01
                    CP:  7.53D-01  7.75D-01  6.47D-01  7.77D-01  6.74D-01
 E= -986.131341398574     Delta-E=       -0.000000159038 Rises=F Damp=F
 DIIS: error= 4.33D-06 at cycle  11 NSaved=  11.
 NSaved=11 IEnMin=11 EnMin= -986.131341398574     IErMin=11 ErrMin= 4.33D-06
 ErrMax= 4.33D-06 EMaxC= 1.00D-01 BMatC= 1.15D-08 BMatP= 1.64D-07
 IDIUse=1 WtCom= 1.00D+00 WtEn= 0.00D+00
 Coeff-Com: -0.131D-03 0.163D-03-0.974D-03 0.187D-03-0.181D-02 0.421D-02
 Coeff-Com: -0.842D-03 0.368D-01 0.104D+00 0.291D+00 0.567D+00
 Coeff:     -0.131D-03 0.163D-03-0.974D-03 0.187D-03-0.181D-02 0.421D-02
 Coeff:     -0.842D-03 0.368D-01 0.104D+00 0.291D+00 0.567D+00
 Gap=     0.103 Goal=   None    Shift=    0.000
 RMSDP=2.34D-06 MaxDP=1.34D-04 DE=-1.59D-07 OVMax= 3.92D-05

 Cycle  12  Pass 1  IDiag  1:
 RMSU=  1.64D-06    CP:  8.07D-01  6.28D-01  8.45D-01  3.13D-01  7.53D-01
                    CP:  7.53D-01  7.74D-01  6.49D-01  7.80D-01  7.46D-01
                    CP:  7.77D-01
 E= -986.131341407076     Delta-E=       -0.000000008503 Rises=F Damp=F
 DIIS: error= 2.80D-06 at cycle  12 NSaved=  12.
 NSaved=12 IEnMin=12 EnMin= -986.131341407076     IErMin=12 ErrMin= 2.80D-06
 ErrMax= 2.80D-06 EMaxC= 1.00D-01 BMatC= 4.05D-09 BMatP= 1.15D-08
 IDIUse=1 WtCom= 1.00D+00 WtEn= 0.00D+00
 Coeff-Com: -0.251D-04 0.343D-04-0.495D-03 0.171D-03-0.126D-02-0.155D-03
 Coeff-Com: -0.322D-02 0.216D-02 0.873D-02 0.835D-01 0.395D+00 0.515D+00
 Coeff:     -0.251D-04 0.343D-04-0.495D-03 0.171D-03-0.126D-02-0.155D-03
 Coeff:     -0.322D-02 0.216D-02 0.873D-02 0.835D-01 0.395D+00 0.515D+00
 Gap=     0.103 Goal=   None    Shift=    0.000
 RMSDP=1.18D-06 MaxDP=9.53D-05 DE=-8.50D-09 OVMax= 2.31D-05

 Cycle  13  Pass 1  IDiag  1:
 RMSU=  6.30D-07    CP:  8.07D-01  6.28D-01  8.45D-01  3.13D-01  7.53D-01
                    CP:  7.53D-01  7.74D-01  6.51D-01  7.85D-01  7.52D-01
                    CP:  8.70D-01  6.43D-01
 E= -986.131341410549     Delta-E=       -0.000000003472 Rises=F Damp=F
 DIIS: error= 2.11D-06 at cycle  13 NSaved=  13.
 NSaved=13 IEnMin=13 EnMin= -986.131341410549     IErMin=13 ErrMin= 2.11D-06
 ErrMax= 2.11D-06 EMaxC= 1.00D-01 BMatC= 7.68D-10 BMatP= 4.05D-09
 IDIUse=1 WtCom= 1.00D+00 WtEn= 0.00D+00
 Coeff-Com: -0.192D-05 0.323D-05-0.206D-03 0.895D-04-0.566D-03-0.613D-03
 Coeff-Com: -0.191D-02-0.347D-02-0.910D-02 0.124D-01 0.188D+00 0.347D+00
 Coeff-Com:  0.469D+00
 Coeff:     -0.192D-05 0.323D-05-0.206D-03 0.895D-04-0.566D-03-0.613D-03
 Coeff:     -0.191D-02-0.347D-02-0.910D-02 0.124D-01 0.188D+00 0.347D+00
 Coeff:      0.469D+00
 Gap=     0.103 Goal=   None    Shift=    0.000
 RMSDP=5.02D-07 MaxDP=4.15D-05 DE=-3.47D-09 OVMax= 7.89D-06

 Cycle  14  Pass 1  IDiag  1:
 RMSU=  2.62D-07    CP:  8.07D-01  6.28D-01  8.44D-01  3.13D-01  7.53D-01
                    CP:  7.53D-01  7.74D-01  6.50D-01  7.88D-01  7.55D-01
                    CP:  8.68D-01  6.99D-01  7.34D-01
 E= -986.131341410963     Delta-E=       -0.000000000414 Rises=F Damp=F
 DIIS: error= 4.61D-07 at cycle  14 NSaved=  14.
 NSaved=14 IEnMin=14 EnMin= -986.131341410963     IErMin=14 ErrMin= 4.61D-07
 ErrMax= 4.61D-07 EMaxC= 1.00D-01 BMatC= 8.49D-11 BMatP= 7.68D-10
 IDIUse=1 WtCom= 1.00D+00 WtEn= 0.00D+00
 Coeff-Com:  0.238D-05-0.386D-05-0.262D-04 0.148D-04-0.656D-04-0.285D-03
 Coeff-Com: -0.308D-03-0.187D-02-0.569D-02-0.916D-02 0.222D-01 0.715D-01
 Coeff-Com:  0.231D+00 0.693D+00
 Coeff:      0.238D-05-0.386D-05-0.262D-04 0.148D-04-0.656D-04-0.285D-03
 Coeff:     -0.308D-03-0.187D-02-0.569D-02-0.916D-02 0.222D-01 0.715D-01
 Coeff:      0.231D+00 0.693D+00
 Gap=     0.103 Goal=   None    Shift=    0.000
 RMSDP=1.42D-07 MaxDP=8.94D-06 DE=-4.14D-10 OVMax= 2.69D-06

 Cycle  15  Pass 1  IDiag  1:
 RMSU=  8.14D-08    CP:  8.07D-01  6.28D-01  8.44D-01  3.13D-01  7.53D-01
                    CP:  7.53D-01  7.74D-01  6.50D-01  7.87D-01  7.55D-01
                    CP:  8.78D-01  7.01D-01  7.96D-01  7.94D-01
 E= -986.131341411292     Delta-E=       -0.000000000329 Rises=F Damp=F
 DIIS: error= 1.15D-07 at cycle  15 NSaved=  15.
 NSaved=15 IEnMin=15 EnMin= -986.131341411292     IErMin=15 ErrMin= 1.15D-07
 ErrMax= 1.15D-07 EMaxC= 1.00D-01 BMatC= 1.04D-11 BMatP= 8.49D-11
 IDIUse=1 WtCom= 1.00D+00 WtEn= 0.00D+00
 Coeff-Com:  0.168D-05-0.285D-05 0.451D-05-0.497D-06 0.204D-04-0.118D-03
 Coeff-Com:  0.150D-04-0.812D-03-0.271D-02-0.728D-02-0.576D-02 0.845D-02
 Coeff-Com:  0.998D-01 0.445D+00 0.463D+00
 Coeff:      0.168D-05-0.285D-05 0.451D-05-0.497D-06 0.204D-04-0.118D-03
 Coeff:      0.150D-04-0.812D-03-0.271D-02-0.728D-02-0.576D-02 0.845D-02
 Coeff:      0.998D-01 0.445D+00 0.463D+00
 Gap=     0.103 Goal=   None    Shift=    0.000
 RMSDP=6.88D-08 MaxDP=4.47D-06 DE=-3.29D-10 OVMax= 9.30D-07

 Cycle  16  Pass 1  IDiag  1:
 RMSU=  4.14D-08    CP:  8.07D-01  6.28D-01  8.44D-01  3.13D-01  7.53D-01
                    CP:  7.53D-01  7.74D-01  6.50D-01  7.86D-01  7.55D-01
                    CP:  8.80D-01  7.14D-01  8.00D-01  8.57D-01  7.95D-01
 E= -986.131341410687     Delta-E=        0.000000000605 Rises=F Damp=F
 DIIS: error= 3.31D-08 at cycle  16 NSaved=  16.
 NSaved=16 IEnMin=15 EnMin= -986.131341411292     IErMin=16 ErrMin= 3.31D-08
 ErrMax= 3.31D-08 EMaxC= 1.00D-01 BMatC= 4.81D-13 BMatP= 1.04D-11
 IDIUse=1 WtCom= 1.00D+00 WtEn= 0.00D+00
 Coeff-Com:  0.705D-06-0.121D-05 0.371D-05-0.977D-06 0.136D-04-0.422D-04
 Coeff-Com:  0.226D-04-0.283D-03-0.100D-02-0.302D-02-0.386D-02 0.828D-03
 Coeff-Com:  0.389D-01 0.186D+00 0.250D+00 0.532D+00
 Coeff:      0.705D-06-0.121D-05 0.371D-05-0.977D-06 0.136D-04-0.422D-04
 Coeff:      0.226D-04-0.283D-03-0.100D-02-0.302D-02-0.386D-02 0.828D-03
 Coeff:      0.389D-01 0.186D+00 0.250D+00 0.532D+00
 Gap=     0.103 Goal=   None    Shift=    0.000
 RMSDP=3.16D-08 MaxDP=1.94D-06 DE= 6.05D-10 OVMax= 2.64D-07

 Cycle  17  Pass 1  IDiag  1:
 RMSU=  2.30D-08    CP:  8.07D-01  6.28D-01  8.44D-01  3.13D-01  7.53D-01
                    CP:  7.53D-01  7.74D-01  6.50D-01  7.86D-01  7.55D-01
                    CP:  8.80D-01  7.12D-01  7.99D-01  8.78D-01  8.10D-01
                    CP:  9.62D-01
 E= -986.131341408763     Delta-E=        0.000000001924 Rises=F Damp=F
 DIIS: error= 1.68D-08 at cycle  17 NSaved=  17.
 NSaved=17 IEnMin=15 EnMin= -986.131341411292     IErMin=17 ErrMin= 1.68D-08
 ErrMax= 1.68D-08 EMaxC= 1.00D-01 BMatC= 1.82D-13 BMatP= 4.81D-13
 IDIUse=1 WtCom= 1.00D+00 WtEn= 0.00D+00
 Coeff-Com:  0.196D-06-0.278D-06 0.189D-05-0.651D-06 0.602D-05-0.798D-05
 Coeff-Com:  0.126D-04-0.501D-04-0.216D-03-0.798D-03-0.167D-02-0.866D-03
 Coeff-Com:  0.958D-02 0.505D-01 0.959D-01 0.388D+00 0.460D+00
 Coeff:      0.196D-06-0.278D-06 0.189D-05-0.651D-06 0.602D-05-0.798D-05
 Coeff:      0.126D-04-0.501D-04-0.216D-03-0.798D-03-0.167D-02-0.866D-03
 Coeff:      0.958D-02 0.505D-01 0.959D-01 0.388D+00 0.460D+00
 Gap=     0.103 Goal=   None    Shift=    0.000
 RMSDP=7.85D-08 MaxDP=3.13D-06 DE= 1.92D-09 OVMax= 1.27D-07

 Cycle  18  Pass 1  IDiag  1:
 RMSU=  7.38D-08    CP:  8.07D-01  6.28D-01  8.44D-01  3.13D-01  7.53D-01
                    CP:  7.53D-01  7.74D-01  6.50D-01  7.86D-01  7.54D-01
                    CP:  8.80D-01  7.06D-01  8.05D-01  8.65D-01  7.36D-01
                    CP:  1.10D+00  7.19D-01
 E= -986.131341408546     Delta-E=        0.000000000217 Rises=F Damp=F
 DIIS: error= 6.65D-09 at cycle  18 NSaved=  18.
 NSaved=18 IEnMin=15 EnMin= -986.131341411292     IErMin=18 ErrMin= 6.65D-09
 ErrMax= 6.65D-09 EMaxC= 1.00D-01 BMatC= 1.04D-14 BMatP= 1.82D-13
 IDIUse=1 WtCom= 1.00D+00 WtEn= 0.00D+00
 Coeff-Com:  0.366D-07-0.330D-07 0.611D-06-0.221D-06 0.152D-05 0.663D-06
 Coeff-Com:  0.285D-05 0.577D-05-0.606D-06-0.699D-04-0.421D-03-0.522D-03
 Coeff-Com:  0.276D-03 0.338D-02 0.187D-01 0.126D+00 0.215D+00 0.638D+00
 Coeff:      0.366D-07-0.330D-07 0.611D-06-0.221D-06 0.152D-05 0.663D-06
 Coeff:      0.285D-05 0.577D-05-0.606D-06-0.699D-04-0.421D-03-0.522D-03
 Coeff:      0.276D-03 0.338D-02 0.187D-01 0.126D+00 0.215D+00 0.638D+00
 Gap=     0.103 Goal=   None    Shift=    0.000
 RMSDP=3.79D-08 MaxDP=1.41D-06 DE= 2.17D-10 OVMax= 3.84D-08

 Cycle  19  Pass 1  IDiag  1:
 RMSU=  5.44D-09    CP:  8.07D-01  6.28D-01  8.44D-01  3.13D-01  7.53D-01
                    CP:  7.53D-01  7.74D-01  6.50D-01  7.86D-01  7.54D-01
                    CP:  8.81D-01  7.04D-01  8.07D-01  8.60D-01  7.00D-01
                    CP:  1.22D+00  7.09D-01  1.48D+00
 E= -986.131341407793     Delta-E=        0.000000000754 Rises=F Damp=F
 DIIS: error= 2.21D-09 at cycle  19 NSaved=  19.
 NSaved=19 IEnMin=15 EnMin= -986.131341411292     IErMin=19 ErrMin= 2.21D-09
 ErrMax= 2.21D-09 EMaxC= 1.00D-01 BMatC= 2.32D-15 BMatP= 1.04D-14
 IDIUse=1 WtCom= 1.00D+00 WtEn= 0.00D+00
 Coeff-Com: -0.171D-07 0.407D-07-0.403D-07 0.230D-07-0.495D-06 0.210D-05
 Coeff-Com: -0.158D-05 0.148D-04 0.477D-04 0.137D-03 0.132D-03-0.911D-04
 Coeff-Com: -0.194D-02-0.930D-02-0.923D-02-0.227D-02 0.365D-01 0.390D+00
 Coeff-Com:  0.596D+00
 Coeff:     -0.171D-07 0.407D-07-0.403D-07 0.230D-07-0.495D-06 0.210D-05
 Coeff:     -0.158D-05 0.148D-04 0.477D-04 0.137D-03 0.132D-03-0.911D-04
 Coeff:     -0.194D-02-0.930D-02-0.923D-02-0.227D-02 0.365D-01 0.390D+00
 Coeff:      0.596D+00
 Gap=     0.103 Goal=   None    Shift=    0.000
 RMSDP=1.57D-08 MaxDP=6.34D-07 DE= 7.54D-10 OVMax= 2.05D-08

 Cycle  20  Pass 1  IDiag  1:
 Restarting incremental Fock formation.
 E= -986.131341411484     Delta-E=       -0.000000003691 Rises=F Damp=F
 DIIS: error= 5.93D-09 at cycle  20 NSaved=  20.
 NSaved=20 IEnMin=20 EnMin= -986.131341411484     IErMin=19 ErrMin= 2.21D-09
 ErrMax= 5.93D-09 EMaxC= 1.00D-01 BMatC= 9.13D-15 BMatP= 2.32D-15
 IDIUse=1 WtCom= 1.00D+00 WtEn= 0.00D+00
 Large coefficients: NSaved= 20 BigCof=    0.00 CofMax=   10.00 Det=-4.23D-15
 Inversion failed.  Reducing to 19 matrices.
 Large coefficients: NSaved= 19 BigCof=    0.00 CofMax=   10.00 Det=-4.52D-15
 Inversion failed.  Reducing to 18 matrices.
 Large coefficients: NSaved= 18 BigCof=    0.00 CofMax=   10.00 Det=-4.83D-15
 Inversion failed.  Reducing to 17 matrices.
 Large coefficients: NSaved= 17 BigCof=    0.00 CofMax=   10.00 Det=-4.83D-15
 Inversion failed.  Reducing to 16 matrices.
 Large coefficients: NSaved= 16 BigCof=    0.00 CofMax=   10.00 Det=-4.85D-15
 Inversion failed.  Reducing to 15 matrices.
 Coeff-Com:  0.593D-06-0.816D-06 0.170D-05 0.782D-06 0.150D-04 0.714D-04
 Coeff-Com:  0.134D-03-0.317D-04-0.122D-02 0.186D-03 0.138D-01 0.422D-01
 Coeff-Com:  0.329D+00 0.532D+00 0.844D-01
 Coeff:      0.593D-06-0.816D-06 0.170D-05 0.782D-06 0.150D-04 0.714D-04
 Coeff:      0.134D-03-0.317D-04-0.122D-02 0.186D-03 0.138D-01 0.422D-01
 Coeff:      0.329D+00 0.532D+00 0.844D-01
 Gap=     0.103 Goal=   None    Shift=    0.000
 RMSDP=2.10D-08 MaxDP=1.01D-06 DE=-3.69D-09 OVMax= 5.18D-09

 Cycle  21  Pass 1  IDiag  1:
 RMSU=  2.08D-08    CP:  1.00D+00
 E= -986.131341411090     Delta-E=        0.000000000394 Rises=F Damp=F
 DIIS: error= 5.17D-09 at cycle  21 NSaved=  16.
 NSaved=16 IEnMin=15 EnMin= -986.131341411484     IErMin=14 ErrMin= 2.21D-09
 ErrMax= 5.17D-09 EMaxC= 1.00D-01 BMatC= 8.51D-15 BMatP= 2.32D-15
 IDIUse=1 WtCom= 1.00D+00 WtEn= 0.00D+00
 Large coefficients: NSaved= 16 BigCof=    0.00 CofMax=   10.00 Det=-4.38D-16
 Inversion failed.  Reducing to 15 matrices.
 Coeff-Com: -0.101D-05-0.104D-05-0.880D-05-0.744D-05 0.757D-04 0.206D-03
 Coeff-Com:  0.388D-03 0.481D-03 0.235D-02 0.195D-01 0.492D-01 0.334D+00
 Coeff-Com:  0.522D+00 0.312D+00-0.240D+00
 Coeff:     -0.101D-05-0.104D-05-0.880D-05-0.744D-05 0.757D-04 0.206D-03
 Coeff:      0.388D-03 0.481D-03 0.235D-02 0.195D-01 0.492D-01 0.334D+00
 Coeff:      0.522D+00 0.312D+00-0.240D+00
 Gap=     0.103 Goal=   None    Shift=    0.000
 RMSDP=1.45D-08 MaxDP=4.82D-07 DE= 3.94D-10 OVMax= 2.83D-09

 Cycle  22  Pass 1  IDiag  1:
 RMSU=  1.40D-08    CP:  1.00D+00  8.27D-01
 E= -986.131341411492     Delta-E=       -0.000000000402 Rises=F Damp=F
 DIIS: error= 5.23D-09 at cycle  22 NSaved=  16.
 NSaved=16 IEnMin=16 EnMin= -986.131341411492     IErMin=13 ErrMin= 2.21D-09
 ErrMax= 5.23D-09 EMaxC= 1.00D-01 BMatC= 8.89D-15 BMatP= 2.32D-15
 IDIUse=1 WtCom= 1.00D+00 WtEn= 0.00D+00
 Large coefficients: NSaved= 16 BigCof=    0.00 CofMax=   10.00 Det=-7.46D-17
 Inversion failed.  Reducing to 15 matrices.
 Coeff-Com:  0.631D-06-0.659D-05-0.223D-04-0.698D-05 0.987D-04 0.549D-03
 Coeff-Com:  0.184D-02 0.422D-02 0.230D-01 0.504D-01 0.324D+00 0.521D+00
 Coeff-Com:  0.302D+00-0.329D+00 0.102D+00
 Coeff:      0.631D-06-0.659D-05-0.223D-04-0.698D-05 0.987D-04 0.549D-03
 Coeff:      0.184D-02 0.422D-02 0.230D-01 0.504D-01 0.324D+00 0.521D+00
 Coeff:      0.302D+00-0.329D+00 0.102D+00
 Gap=     0.103 Goal=   None    Shift=    0.000
 RMSDP=2.52D-09 MaxDP=1.20D-07 DE=-4.02D-10 OVMax= 3.08D-09

 SCF Done:  E(RB+HF-LYP) =  -986.131341411     A.U. after   22 cycles
             Convg  =    0.2522D-08             -V/T =  2.0072
             S**2   =   0.0000
 KE= 9.790481956171D+02 PE=-5.424573554110D+03 EE= 1.892032471584D+03
 Leave Link  502 at Tue Jan 18 02:48:22 2022, MaxMem= 2359296000 cpu:    6724.3
 (Enter /home/madghost/g03/g03/l601.exe)
 Copying SCF densities to generalized density rwf, ISCF=0 IROHF=0.

 **********************************************************************

            Population analysis using the SCF density.

 **********************************************************************

 Orbital symmetries:
       Occupied  (A) (A) (A) (A) (A) (A) (A) (A) (A) (A) (A) (A)
                 (A) (A) (A) (A) (A) (A) (A) (A) (A) (A) (A) (A)
                 (A) (A) (A) (A) (A) (A) (A) (A) (A) (A) (A) (A)
                 (A) (A) (A) (A) (A) (A) (A) (A) (A) (A) (A) (A)
                 (A) (A) (A) (A) (A) (A) (A) (A) (A) (A) (A) (A)
                 (A) (A) (A) (A) (A) (A) (A) (A) (A) (A) (A) (A)
                 (A) (A) (A) (A) (A)
       Virtual   (A) (A) (A) (A) (A) (A) (A) (A) (A) (A) (A) (A)
                 (A) (A) (A) (A) (A) (A) (A) (A) (A) (A) (A) (A)
                 (A) (A) (A) (A) (A) (A) (A) (A) (A) (A) (A) (A)
                 (A) (A) (A) (A) (A) (A) (A) (A) (A) (A) (A) (A)
                 (A) (A) (A) (A) (A) (A) (A) (A) (A) (A) (A) (A)
                 (A) (A) (A) (A) (A) (A) (A) (A) (A) (A) (A) (A)
                 (A) (A) (A) (A) (A) (A) (A) (A) (A) (A) (A) (A)
                 (A) (A) (A) (A) (A) (A) (A) (A) (A) (A) (A) (A)
                 (A) (A) (A) (A) (A) (A) (A) (A) (A) (A) (A) (A)
                 (A) (A) (A) (A) (A) (A) (A) (A) (A) (A) (A) (A)
                 (A) (A) (A) (A) (A) (A) (A) (A) (A) (A) (A) (A)
                 (A) (A) (A) (A) (A) (A) (A) (A) (A) (A) (A) (A)
                 (A) (A) (A) (A) (A) (A) (A) (A) (A) (A) (A) (A)
                 (A) (A) (A) (A) (A) (A) (A) (A) (A) (A) (A) (A)
                 (A) (A) (A) (A) (A) (A) (A) (A) (A) (A) (A) (A)
                 (A) (A) (A) (A) (A) (A) (A) (A) (A) (A) (A) (A)
                 (A) (A) (A) (A) (A) (A) (A) (A) (A) (A) (A) (A)
                 (A) (A) (A) (A) (A) (A) (A) (A) (A) (A) (A) (A)
                 (A) (A) (A) (A) (A) (A) (A) (A) (A) (A) (A) (A)
                 (A) (A) (A) (A) (A) (A) (A) (A) (A) (A) (A) (A)
                 (A) (A) (A) (A) (A) (A) (A) (A) (A) (A) (A) (A)
                 (A) (A) (A) (A) (A) (A) (A) (A) (A) (A) (A) (A)
                 (A) (A) (A) (A) (A) (A) (A) (A) (A) (A) (A) (A)
                 (A) (A) (A) (A) (A) (A) (A) (A) (A) (A) (A) (A)
                 (A) (A) (A) (A) (A) (A) (A) (A) (A) (A) (A) (A)
                 (A) (A) (A) (A) (A) (A) (A) (A) (A) (A) (A) (A)
                 (A) (A) (A) (A) (A) (A) (A) (A) (A) (A) (A) (A)
                 (A) (A) (A) (A) (A) (A) (A) (A) (A) (A) (A) (A)
                 (A) (A) (A) (A) (A) (A) (A) (A) (A) (A) (A) (A)
                 (A) (A) (A) (A) (A) (A) (A) (A) (A) (A) (A) (A)
                 (A) (A) (A) (A) (A) (A) (A) (A) (A) (A) (A) (A)
                 (A) (A) (A) (A) (A) (A) (A) (A) (A) (A) (A) (A)
                 (A) (A) (A) (A) (A) (A) (A) (A)
 The electronic state is 1-A.
 Alpha  occ. eigenvalues --  -19.21719 -14.40894 -14.40223 -14.36144 -14.36121
 Alpha  occ. eigenvalues --  -10.29735 -10.27272 -10.27141 -10.26332 -10.24914
 Alpha  occ. eigenvalues --  -10.24869 -10.24844 -10.24337 -10.24155 -10.23447
 Alpha  occ. eigenvalues --  -10.23435 -10.23362 -10.23215 -10.22781 -10.21727
 Alpha  occ. eigenvalues --  -10.21647 -10.21468 -10.21310  -1.07771  -1.05327
 Alpha  occ. eigenvalues --   -0.93949  -0.92392  -0.91391  -0.90198  -0.86019
 Alpha  occ. eigenvalues --   -0.84265  -0.81269  -0.80118  -0.77906  -0.76294
 Alpha  occ. eigenvalues --   -0.72448  -0.69001  -0.66504  -0.65729  -0.64597
 Alpha  occ. eigenvalues --   -0.61995  -0.60002  -0.57350  -0.55962  -0.54331
 Alpha  occ. eigenvalues --   -0.52920  -0.52715  -0.50531  -0.49274  -0.47794
 Alpha  occ. eigenvalues --   -0.46647  -0.46416  -0.45650  -0.45511  -0.44507
 Alpha  occ. eigenvalues --   -0.44383  -0.43781  -0.42984  -0.41896  -0.40876
 Alpha  occ. eigenvalues --   -0.39518  -0.39112  -0.38124  -0.37946  -0.37822
 Alpha  occ. eigenvalues --   -0.37258  -0.36858  -0.36773  -0.35520  -0.35141
 Alpha  occ. eigenvalues --   -0.34083  -0.30717  -0.29670  -0.28318  -0.28032
 Alpha  occ. eigenvalues --   -0.25900  -0.23461
 Alpha virt. eigenvalues --   -0.13178  -0.08139  -0.06366  -0.05258  -0.04247
 Alpha virt. eigenvalues --   -0.02939  -0.01609  -0.00800  -0.00192  -0.00037
 Alpha virt. eigenvalues --    0.00722   0.01491   0.01733   0.01787   0.01881
 Alpha virt. eigenvalues --    0.03005   0.03023   0.03546   0.04184   0.04398
 Alpha virt. eigenvalues --    0.04643   0.04678   0.05638   0.06008   0.06300
 Alpha virt. eigenvalues --    0.06510   0.06983   0.07136   0.07250   0.07276
 Alpha virt. eigenvalues --    0.07777   0.07967   0.08738   0.08933   0.09343
 Alpha virt. eigenvalues --    0.09589   0.10050   0.10240   0.10437   0.10818
 Alpha virt. eigenvalues --    0.10941   0.11001   0.11553   0.12059   0.12555
 Alpha virt. eigenvalues --    0.12800   0.12814   0.12927   0.13464   0.13562
 Alpha virt. eigenvalues --    0.13703   0.13963   0.14221   0.14340   0.14727
 Alpha virt. eigenvalues --    0.15118   0.15155   0.15571   0.16567   0.16666
 Alpha virt. eigenvalues --    0.17404   0.17566   0.18093   0.18094   0.18646
 Alpha virt. eigenvalues --    0.19189   0.19245   0.19502   0.19644   0.19811
 Alpha virt. eigenvalues --    0.19824   0.20379   0.20769   0.21098   0.21420
 Alpha virt. eigenvalues --    0.22116   0.22144   0.22179   0.22889   0.23071
 Alpha virt. eigenvalues --    0.23403   0.23621   0.24162   0.24330   0.24444
 Alpha virt. eigenvalues --    0.24503   0.25163   0.25652   0.25771   0.26531
 Alpha virt. eigenvalues --    0.26544   0.26700   0.26989   0.27235   0.27501
 Alpha virt. eigenvalues --    0.27625   0.27702   0.28068   0.28272   0.28296
 Alpha virt. eigenvalues --    0.28803   0.28961   0.29512   0.29609   0.29755
 Alpha virt. eigenvalues --    0.30333   0.30593   0.30774   0.31321   0.31772
 Alpha virt. eigenvalues --    0.32396   0.32617   0.33175   0.33880   0.34297
 Alpha virt. eigenvalues --    0.34613   0.35111   0.35175   0.35452   0.36184
 Alpha virt. eigenvalues --    0.36415   0.37023   0.37944   0.38239   0.39489
 Alpha virt. eigenvalues --    0.39783   0.40098   0.41325   0.42116   0.42206
 Alpha virt. eigenvalues --    0.43984   0.45473   0.45737   0.46151   0.46881
 Alpha virt. eigenvalues --    0.47879   0.51711   0.52586   0.53569   0.57083
 Alpha virt. eigenvalues --    0.58619   0.61725   0.63067   0.63751   0.63841
 Alpha virt. eigenvalues --    0.64792   0.65172   0.66294   0.66631   0.67348
 Alpha virt. eigenvalues --    0.68833   0.70431   0.70908   0.71133   0.71361
 Alpha virt. eigenvalues --    0.71476   0.72131   0.72403   0.72719   0.73729
 Alpha virt. eigenvalues --    0.73913   0.74735   0.74832   0.75638   0.76378
 Alpha virt. eigenvalues --    0.76990   0.77915   0.78179   0.78545   0.80255
 Alpha virt. eigenvalues --    0.80639   0.81537   0.82179   0.83094   0.84179
 Alpha virt. eigenvalues --    0.84760   0.84842   0.86671   0.87300   0.87845
 Alpha virt. eigenvalues --    0.89442   0.90734   0.91563   0.92684   0.92995
 Alpha virt. eigenvalues --    0.95205   0.97187   0.97539   0.98015   0.98337
 Alpha virt. eigenvalues --    0.99768   1.00053   1.00296   1.01414   1.01934
 Alpha virt. eigenvalues --    1.02443   1.03426   1.03567   1.05797   1.06195
 Alpha virt. eigenvalues --    1.07279   1.08010   1.08951   1.09487   1.10031
 Alpha virt. eigenvalues --    1.11299   1.12586   1.13581   1.14454   1.14622
 Alpha virt. eigenvalues --    1.15564   1.16701   1.16737   1.17565   1.18246
 Alpha virt. eigenvalues --    1.18626   1.19899   1.20031   1.21213   1.21888
 Alpha virt. eigenvalues --    1.22110   1.23128   1.24756   1.26247   1.27032
 Alpha virt. eigenvalues --    1.27579   1.28237   1.29006   1.29016   1.29775
 Alpha virt. eigenvalues --    1.29848   1.30757   1.31908   1.32663   1.32692
 Alpha virt. eigenvalues --    1.33162   1.33198   1.34918   1.35101   1.36310
 Alpha virt. eigenvalues --    1.37459   1.37907   1.38930   1.39693   1.39861
 Alpha virt. eigenvalues --    1.40097   1.41941   1.43095   1.45776   1.47813
 Alpha virt. eigenvalues --    1.49749   1.49829   1.51733   1.53306   1.54066
 Alpha virt. eigenvalues --    1.54910   1.55241   1.56782   1.56906   1.59402
 Alpha virt. eigenvalues --    1.63809   1.66927   1.69792   1.71590   1.73346
 Alpha virt. eigenvalues --    1.75208   1.75285   1.77558   1.78009   1.79321
 Alpha virt. eigenvalues --    1.79798   1.80295   1.80838   1.81486   1.83478
 Alpha virt. eigenvalues --    1.84231   1.86072   1.86720   1.87334   1.87407
 Alpha virt. eigenvalues --    1.89048   1.90496   1.91220   1.92236   1.92251
 Alpha virt. eigenvalues --    1.93002   1.93058   1.94153   1.94774   1.96132
 Alpha virt. eigenvalues --    1.96826   1.97055   1.97772   1.98457   1.99053
 Alpha virt. eigenvalues --    1.99692   2.00667   2.02141   2.03082   2.03508
 Alpha virt. eigenvalues --    2.07251   2.08535   2.09425   2.09694   2.11317
 Alpha virt. eigenvalues --    2.13775   2.17551   2.18514   2.19836   2.21702
 Alpha virt. eigenvalues --    2.22257   2.22357   2.24275   2.24842   2.27114
 Alpha virt. eigenvalues --    2.27775   2.30881   2.31117   2.34440   2.35112
 Alpha virt. eigenvalues --    2.35494   2.36778   2.38788   2.38939   2.41794
 Alpha virt. eigenvalues --    2.42177   2.42765   2.44323   2.44744   2.45160
 Alpha virt. eigenvalues --    2.47076   2.48578   2.48923   2.49629   2.50631
 Alpha virt. eigenvalues --    2.52012   2.53671   2.54771   2.54919   2.56531
 Alpha virt. eigenvalues --    2.57156   2.58831   2.59003   2.60779   2.61309
 Alpha virt. eigenvalues --    2.62025   2.62924   2.63940   2.64049   2.64990
 Alpha virt. eigenvalues --    2.67753   2.69253   2.70417   2.72170   2.72793
 Alpha virt. eigenvalues --    2.73523   2.75103   2.76109   2.78652   2.80816
 Alpha virt. eigenvalues --    2.81350   2.84811   2.85599   2.91493   2.92914
 Alpha virt. eigenvalues --    2.96930   3.02073   3.03183   3.05208   3.06596
 Alpha virt. eigenvalues --    3.09741   3.12181   3.14222   3.15787   3.17843
 Alpha virt. eigenvalues --    3.19661   3.20191   3.25907   3.26964   3.28307
 Alpha virt. eigenvalues --    3.30080   3.33966   3.35869   3.37908   3.40702
 Alpha virt. eigenvalues --    3.43283   3.50394   3.52160   3.53096   3.71663
 Alpha virt. eigenvalues --    3.80420   3.87613
          Condensed to atoms (all electrons):
              1          2          3          4          5          6
     1  C   17.421373  -5.018608  -1.283627  -0.140167  -4.171429   0.684766
     2  C   -5.018608  16.811498  -2.679146   0.179454   1.555146   0.559754
     3  C   -1.283627  -2.679146  13.430444   0.357674   3.259117  -5.851664
     4  H   -0.140167   0.179454   0.357674   0.604230   0.091785  -0.048872
     5  C   -4.171429   1.555146   3.259117   0.091785  13.821142  -6.878882
     6  C    0.684766   0.559754  -5.851664  -0.048872  -6.878882  17.399024
     7  H    0.202306  -0.032089  -0.030424  -0.000068   0.069983   0.105573
     8  H    0.112734  -0.041997  -0.156787  -0.029757  -0.177054   0.693615
     9  C    1.346255  -2.499893  -1.164572   0.046542  -1.550223  -1.021167
    10  C   -4.114167  -0.773138  -0.149694   0.045172   0.715143   0.650544
    11  N    0.188206   0.371069   0.019011  -0.000325  -0.084155  -0.025303
    12  C    0.010549  -2.611005   0.211757  -0.260301  -0.667533  -0.789538
    13  N    0.247189   0.104836  -0.059803   0.002812   0.015012   0.020655
    14  N   -0.355578   0.586586   0.537153   0.008168   1.680981  -1.723823
    15  N    0.341013  -0.531673  -0.551422  -0.012119  -2.096605   1.873214
    16  C   -0.010274   0.008026  -0.012572  -0.000007  -0.053424   0.039087
    17  C   -0.031632  -0.023825   0.095342   0.003452   0.605339  -0.585231
    18  C    0.076829  -0.095083   0.133893   0.000913  -0.000983  -0.207926
    19  C    0.109369  -0.113499   0.009086  -0.004446  -0.472199   0.683194
    20  C    0.017098  -0.024771  -0.005985  -0.000722   0.002704   0.072927
    21  C   -0.012284   0.023753   0.013841   0.000311   0.096896  -0.081434
    22  C    0.006686  -0.012512   0.015452   0.000003   0.017817   0.016335
    23  C   -0.001914   0.003969  -0.008100  -0.000236  -0.005710  -0.002213
    24  C   -0.013207   0.022826  -0.103217  -0.001473  -0.042931   0.024889
    25  C   -0.014106   0.056679  -0.153405  -0.001800  -0.219811   0.257192
    26  H    0.000027  -0.000089   0.000059   0.000003   0.000228  -0.000381
    27  H    0.000005   0.000023  -0.000046  -0.000007  -0.000214   0.000415
    28  H    0.000450  -0.000517   0.000225  -0.000053   0.000303   0.000338
    29  H   -0.031617   0.031131  -0.013164   0.003446   0.031241  -0.084017
    30  H    0.000157  -0.000512  -0.000692  -0.000014  -0.007179   0.003579
    31  H    0.004611  -0.010295   0.003440  -0.000057   0.006469   0.015939
[...]
 000568,-0.00000069,0.,-0.00000550,0.00000238,0.,-0.00005752,0.00006536
 ,0.,-0.00040517,-0.00030828,0.,0.00038309,0.00015192,0.,-0.00028679,0.
 00009151,0.,-0.00030891,0.00095246,0.,-0.00114741,-0.00410266,-0.00000
 006,-0.01843771,0.00994701,-0.00000006,-0.00244546,0.00193857,0.,-0.30
 248052,0.10289227,-0.00000091,0.00154379,-0.00102303,-0.00000002,0.001
 50302,0.00016479,-0.00000004,0.00034140,-0.00045390,0.,0.31857816,0.00
 001801,-0.00001293,0.,-0.00001944,0.00000387,0.,-0.00000285,0.00000648
 ,0.,-0.00000052,-0.00000057,0.,0.00002128,0.00000906,0.,0.00000652,-0.
 00000977,0.,-0.00000052,-0.00000082,0.,-0.00000035,-0.00000319,0.,-0.0
 0009482,0.00000350,0.,-0.00000397,-0.00000166,0.,0.00000333,0.00000200
 ,0.,-0.00001453,0.00000567,0.,0.00001043,-0.00000513,0.,0.00005121,0.0
 0011606,0.,-0.00058549,-0.00026338,0.,0.00088769,0.00027961,0.,-0.0003
 6428,0.00041066,0.,-0.00043861,0.00050645,0.,-0.00288627,-0.00277406,-
 0.00000005,-0.01799839,0.01207154,-0.00000005,-0.00171419,0.00074182,0
 .,0.10417422,-0.10266584,0.00000023,0.02960888,-0.00701649,0.00000010,
 -0.00062402,-0.00549786,-0.00000008,-0.00057500,-0.00065253,0.,-0.1113
 8734,0.10703120,0.,0.,-0.00000925,0.,0.,0.00001018,0.,0.,0.00001153,0.
 ,0.,0.00000132,0.,0.,-0.00001146,0.,0.,-0.00000847,0.,0.,-0.00000037,0
 .,0.,-0.00000653,0.,0.,-0.00008085,0.,0.,0.00000347,0.,0.,-0.00000216,
 0.,0.,0.00000151,0.,0.,-0.00000139,0.,0.,-0.00002726,-0.00000001,0.,0.
 00040017,0.,0.,-0.00011275,0.,0.,-0.00023173,0.,0.,0.00039764,-0.00000
 004,-0.00000007,0.00473524,-0.00000021,0.00000011,0.00293226,0.,0.0000
 0002,-0.00249432,-0.00000091,0.00000023,-0.03722278,0.00000014,-0.0000
 0007,0.00459754,-0.00000005,-0.00000007,0.00841999,0.,0.,-0.00084903,0
 .00000102,-0.00000019,0.02551549,-0.00002731,0.00001833,0.,0.00001449,
 -0.00000597,0.,-0.00000310,-0.00001944,0.,-0.00000156,0.00000202,0.,-0
 .00003298,0.00000688,0.,-0.00000383,0.00003017,0.,0.00000449,0.0000015
 7,0.,0.00003234,-0.00001259,0.,0.00006783,-0.00000946,0.,0.00001056,0.
 00000976,0.,-0.00001193,-0.00001028,0.,0.00002490,-0.00001182,0.,-0.00
 002238,0.00001224,0.,-0.00003513,-0.00013539,0.,-0.00003299,-0.0000778
 0,0.,0.00009635,0.00002221,0.,-0.00010825,0.00007059,0.,-0.00006324,-0
 .00010125,0.,0.00010966,0.00103235,0.,0.00110715,0.00176827,-0.0000000
 3,0.00023034,0.00011369,0.,0.00726160,0.00451534,0.00000004,-0.2367193
 1,-0.13634598,-0.00000179,-0.01737735,-0.01975420,-0.00000021,-0.00388
 673,0.00378315,-0.00000003,0.00082675,-0.00028626,0.00000003,0.2483249
 9,-0.00002385,0.00001634,0.,0.00001802,-0.00000308,0.,0.00000332,-0.00
 000443,0.,-0.00000225,0.00000212,0.,-0.00003418,0.00000695,0.,-0.00002
 696,0.00000122,0.,0.00000461,0.00000172,0.,-0.00000490,-0.00000293,0.,
 0.00006898,-0.00002103,0.,0.00000620,0.00000493,0.,-0.00000736,-0.0000
 0642,0.,0.00001925,-0.00000750,0.,-0.00001597,0.00000742,0.,-0.0001506
 0,-0.00003040,0.,0.00020997,-0.00000238,0.,-0.00007794,-0.00058790,0.,
 0.00029478,-0.00024753,0.,-0.00008341,0.00042411,0.,0.00060972,-0.0006
 3594,0.,0.00247240,-0.00491935,-0.00000006,-0.00159137,0.00027889,0.,-
 0.02649751,-0.01459336,-0.00000024,-0.13587477,-0.16353479,-0.00000140
 ,0.01139413,0.01130972,0.00000011,0.00285478,-0.00038696,-0.00000001,0
 .00023047,0.00111065,0.00000003,0.14617303,0.17089033,0.,0.,0.00000424
 ,0.,0.,-0.00000117,0.,0.,-0.00000915,0.,0.,0.00000285,0.,0.,0.00000196
 ,0.,0.,0.00000126,0.,0.,0.00000073,0.,0.,0.00000803,0.,0.,0.00000464,0
 .,0.,0.00000108,0.,0.,-0.00000173,0.,0.,0.00000140,0.,0.,-0.00000229,0
 .,0.,-0.00002673,0.,0.,0.00001808,0.,0.,-0.00073761,0.,0.,0.00011912,0
 .,0.,-0.00090183,0.,0.,-0.00045004,-0.00000003,-0.00000006,0.00857486,
 -0.00000001,0.,0.00040037,-0.00000012,-0.00000007,0.00358331,-0.000001
 79,-0.00000140,-0.03686224,-0.00000005,-0.00000006,0.00272070,-0.00000
 003,0.,0.00545936,0.00000003,0.00000003,-0.00505217,0.00000196,0.00000
 155,0.02548215,-0.00000983,0.00000136,0.,0.00000647,0.00000498,0.,0.00
 000603,-0.00000240,0.,-0.00001160,0.00000141,0.,-0.00000646,0.00001342
 ,0.,-0.00003809,-0.00001406,0.,0.00000464,0.00000176,0.,-0.00000568,-0
 .00002301,0.,0.00001416,0.00000221,0.,-0.00000668,-0.00000188,0.,0.000
 00429,0.00000496,0.,-0.00000025,0.00000111,0.,0.00000250,0.00000161,0.
 ,0.00000902,-0.00000185,0.,0.00002382,0.00009746,0.,-0.00023650,0.0000
 9037,0.,-0.00029955,-0.00041157,0.,0.00105246,-0.00077145,0.,-0.004224
 38,-0.00284350,-0.00000008,-0.00099649,-0.00068814,0.,-0.00005296,0.00
 035044,0.,-0.00551837,0.00159701,-0.00000005,0.00143899,0.02976891,0.0
 0000014,-0.06391220,0.03515304,0.00000005,0.00707661,-0.02651098,-0.00
 000013,-0.00001766,0.00140436,0.,0.00099999,-0.00050634,0.00000002,0.0
 6342058,-0.00004764,0.00002524,0.,0.00003022,-0.00000643,0.,0.00001371
 ,-0.00001429,0.,-0.00001229,0.00000559,0.,-0.00005878,0.00001361,0.,-0
 .00005869,0.00001617,0.,0.00001016,0.00000391,0.,0.00000962,-0.0000239
 4,0.,0.00013025,-0.00003815,0.,0.00000484,0.00000588,0.,-0.00000829,-0
 .00000541,0.,0.00003231,-0.00001323,0.,-0.00002471,0.00001548,0.,-0.00
 018050,-0.00010545,0.,0.00017653,0.00003645,0.,-0.00007393,0.00002491,
 0.,-0.00039124,-0.00022594,0.,0.00067737,-0.00051348,0.,-0.00327487,0.
 00016798,-0.00000006,-0.00024364,0.00059511,0.,-0.00000409,0.00013926,
 0.,0.00238579,0.00111010,0.,-0.00125513,-0.00749578,-0.00000006,0.0347
 3739,-0.33532980,-0.00000136,0.00434529,-0.01450676,-0.00000007,-0.000
 17126,-0.00043991,0.,0.00022725,0.00073822,0.00000002,-0.03695259,0.35
 505770,0.,0.,0.00000671,0.,0.,-0.00001146,0.,0.,-0.00000663,0.,0.,0.00
 000596,0.,0.,0.00001648,0.,0.,0.00000452,0.,0.,0.00000647,0.,0.,0.0000
 2586,0.,0.,-0.00012023,0.,0.,0.00000153,0.,0.,-0.00000294,0.,0.,0.0000
 0490,0.,0.,-0.00000479,0.,0.,0.00026985,0.,0.,0.00006693,0.,0.,0.00012
 229,0.,0.,-0.00071196,0.,0.,0.00026397,-0.00000008,-0.00000004,0.00867
 953,0.,0.,-0.00046658,0.,0.00000001,-0.00093456,-0.00000004,-0.0000000
 1,0.00548521,-0.00000001,0.00000010,0.00344416,0.00000004,-0.00000136,
 -0.03826412,0.00000005,-0.00000025,0.00415443,0.,0.,0.00003349,0.00000
 002,0.00000002,-0.00288229,0.,0.00000151,0.02577143,0.00002424,-0.0000
 2679,0.,0.00002591,0.00000306,0.,0.00007134,0.00013087,0.,0.00000200,-
 0.00000315,0.,-0.00003407,0.00000069,0.,-0.00010178,-0.00015250,0.0000
 0001,0.00000817,0.00000944,0.,-0.00036989,0.00008370,-0.00000003,0.000
 11607,-0.00009623,0.,-0.00002326,-0.00001759,0.,0.00002126,0.00001963,
 0.,-0.00000918,0.00002201,0.,0.00002278,-0.00001740,0.,-0.00029917,-0.
 00033189,0.00000002,-0.00110479,-0.00332792,-0.00000004,0.00007942,0.0
 0005836,0.,-0.00006523,0.00031913,0.,-0.00170067,0.00013235,0.00000002
 ,0.00103192,0.00188016,-0.00000001,0.00147116,-0.00013318,-0.00000004,
 0.00003850,-0.00027176,0.,0.00040466,-0.00054222,0.,-0.00162208,-0.003
 86439,-0.00000005,-0.01728363,0.01108976,-0.00000005,-0.30270126,0.105
 73183,-0.00000066,-0.00004039,0.00005214,0.,-0.00081613,0.00056712,0.,
 0.00098140,-0.00011966,0.00000002,0.32202853,0.00000715,-0.00000021,0.
 ,0.00004197,-0.00003140,0.,0.00005378,0.00006820,0.,0.00002844,-0.0000
 0725,0.,-0.00005574,-0.00006091,0.,-0.00000917,-0.00010385,0.,-0.00001
 634,-0.00000810,0.,-0.00020359,0.00023194,0.,0.00001111,-0.00016234,0.
 00000001,-0.00001664,-0.00002185,0.,0.00002142,0.00001871,0.,-0.000003
 36,0.00001108,0.,0.00001878,-0.00001684,0.,-0.00140442,0.00101035,-0.0
 0000003,0.00161356,-0.00146814,0.00000005,-0.00055505,-0.00019251,0.,0
 .00021204,-0.00047151,0.,-0.00016645,0.00152891,0.,0.03005199,-0.00742
 093,0.00000009,-0.00125129,-0.00539954,-0.00000007,0.00205308,0.000805
 31,0.00000001,-0.00049492,-0.00078725,0.,-0.00308961,-0.00201268,-0.00
 000007,-0.01927301,0.01126213,-0.00000006,0.10428542,-0.10208042,0.000
 00017,0.00010619,0.00012017,0.,-0.00094736,0.00037666,0.,0.00037995,0.
 00098721,0.00000003,-0.11130389,0.10463452,0.,0.,-0.00002169,0.,0.,0.0
 0005414,0.00000001,0.,-0.00002431,0.,0.,0.00002884,0.,0.,-0.00007498,-
 0.00000002,-0.00000002,-0.00008901,0.,0.,0.00001040,-0.00000003,0.,0.0
 0021891,0.,0.,0.00000607,0.,0.,0.00000303,0.,0.,-0.00000652,0.,0.,0.00
 000651,0.,0.,-0.00000686,0.,0.00000003,0.00033398,0.,-0.00000006,-0.00
 075315,0.,0.,-0.00010186,0.,0.,-0.00019695,0.,0.00000001,-0.00251326,0
 .00000013,-0.00000003,0.00343008,-0.00000002,-0.00000005,0.00546036,0.
 ,0.,0.00017993,0.,0.,-0.00088091,-0.00000007,-0.00000008,0.00831689,-0
 .00000022,0.00000009,0.00412774,-0.00000064,0.00000017,-0.03765136,0.,
 0.,-0.00109941,-0.00000001,0.,0.00014567,0.00000003,0.00000003,-0.0050
 0940,0.00000082,-0.00000012,0.02582273,-0.00005621,0.00003182,0.,0.000
 01858,-0.00001068,0.,0.00000484,-0.00002887,0.,-0.00000769,0.00000539,
 0.,-0.00007667,0.00005430,0.,-0.00006445,0.00003165,0.,0.00000313,0.00
 000722,0.,0.00001855,-0.00004412,0.,0.00010944,-0.00002048,0.,0.000017
 27,0.00002407,0.,-0.00001694,-0.00002859,0.,0.00003706,-0.00001868,0.,
 -0.00003362,0.00001548,0.,0.00017417,-0.00041070,0.,-0.00001788,0.0022
 4690,0.,-0.06242404,0.03341320,0.00000004,-0.00002255,0.03095392,0.000
 00017,-0.00514320,0.00026134,-0.00000004,-0.00098865,-0.00031408,0.,-0
 .00420231,-0.00201869,-0.00000006,0.00475792,-0.02490695,-0.00000014,0
 .00087887,-0.00087833,0.,-0.00017494,-0.00040513,0.,-0.00034021,0.0000
 5038,0.,0.00026456,0.00031336,0.,0.00001730,0.00001858,0.,0.00002476,-
 0.00012781,0.,0.00001929,0.00000343,0.,-0.00000535,-0.00006096,0.,0.06
 326357,0.00004780,-0.00002792,0.,-0.00001902,0.00000345,0.,0.00000098,
 0.00001965,0.,0.00000664,-0.00000590,0.,0.00005570,-0.00003472,0.,0.00
 005307,-0.00002142,0.,-0.00000953,-0.00000441,0.,-0.00001772,0.0000292
 1,0.,-0.00011506,-0.00002031,0.,-0.00001654,-0.00002147,0.,0.00001984,
 0.00002403,0.,-0.00003760,0.00001643,0.,0.00003465,-0.00001570,0.,-0.0
 0000979,0.00024183,-0.00000001,-0.00003488,-0.00091809,0.,0.03291101,-
 0.33006532,-0.00000161,0.00054363,-0.00796461,-0.00000005,0.00179954,0
 .00205166,-0.00000003,-0.00030789,0.00034365,0.,-0.00371440,0.00026034
 ,-0.00000006,0.00799449,-0.01722468,-0.00000008,0.00082512,-0.00059521
 ,0.,-0.00035821,-0.00022427,0.,-0.00014399,0.00004536,0.,0.00009413,0.
 00009750,0.,-0.00008428,-0.00002635,0.,0.00002167,-0.00011034,0.,-0.00
 000179,-0.00001951,0.,0.00001398,-0.00000583,0.,-0.03746986,0.35054764
 ,0.,0.,-0.00000086,0.,0.,0.00000362,0.,0.,0.00000503,0.,0.,-0.00000295
 ,0.,0.,-0.00001603,0.,0.,0.00001551,0.,0.,0.00001370,0.,0.,0.00001578,
 0.,0.,-0.00030418,0.,0.,0.00000141,0.,0.,-0.00000519,0.,0.,0.00001362,
 0.,0.,-0.00000617,0.,-0.00000001,0.00107320,0.00000003,0.,-0.00079094,
 0.00000002,-0.00000163,-0.03199199,0.,0.00000008,0.00212253,-0.0000000
 8,0.,0.00629442,0.,0.,-0.00040205,-0.00000007,-0.00000004,0.00592520,0
 .00000007,-0.00000023,0.00384040,0.00000001,0.,0.00017024,0.,0.,-0.000
 72303,0.,0.,0.00007504,0.,0.,-0.00045164,0.,0.,0.00026356,0.,0.,0.0000
 0067,0.,0.,0.00012429,0.,0.,0.00003139,-0.00000002,0.00000176,0.022123
 42,-0.00001053,-0.00000453,0.,-0.00001081,-0.00003431,0.,0.00000967,-0
 .00005328,0.,0.00001895,-0.00000965,0.,-0.00002227,0.00011774,0.,0.000
 05580,0.00003339,0.,-0.00014841,-0.00000343,0.,-0.00002744,0.00001762,
 0.,-0.00002286,-0.00035863,0.,-0.00001101,-0.00000553,0.,0.00001856,0.
 00000707,0.,-0.00001025,-0.00000446,0.,0.00001933,-0.00000976,0.,-0.00
 250086,0.00406267,0.,-0.00180938,-0.00224288,0.00000003,-0.01700224,-0
 .01726559,-0.00000018,-0.23538313,-0.14100410,-0.00000198,0.00956410,0
 .00047983,0.00000005,0.00035287,0.00227809,-0.00000002,0.00005487,0.00
 072380,0.,-0.00242444,0.00329848,-0.00000001,-0.00011692,-0.00018414,0
 .,-0.00011284,0.00019404,0.,0.00021440,0.00011766,0.,0.00028658,-0.000
 21745,0.,0.00002296,0.00002377,0.,-0.00000387,-0.00000616,0.,0.0000376
 6,0.00003934,0.,-0.00003683,0.00004488,0.,0.00122240,-0.00010742,0.000
 00002,0.24920146,0.00001514,-0.00000254,0.,-0.00002343,0.00001614,0.,0
 .00000041,0.00012631,-0.00000001,-0.00004292,0.00002051,0.,0.00009678,
 0.00000813,0.,-0.00039985,-0.00000373,0.,0.00005869,0.00003418,0.,0.00
 001640,-0.00001903,0.,0.00042791,0.00109400,0.,0.00001965,0.00003213,0
 .,-0.00002543,-0.00003543,0.,0.00001604,-0.00000481,0.,-0.00002528,0.0
 0001252,0.,0.00088068,-0.00029709,0.00000001,-0.00233547,0.00132719,0.
 00000004,0.01206647,0.01152687,0.00000010,-0.14063062,-0.16849220,-0.0
 0000146,-0.02623075,-0.01466584,-0.00000026,0.00286864,-0.00501705,-0.
 00000004,0.00044301,-0.00030714,0.,0.00264627,-0.00094334,-0.00000004,
 -0.00004654,0.00026041,0.,0.00018260,-0.00007540,0.,0.00008343,-0.0005
 3172,0.,-0.00151552,0.00001279,-0.00000001,-0.00003791,-0.00002925,0.,
 -0.00001962,0.00000519,0.,-0.00013913,-0.00009744,0.,0.00004571,-0.000
 02253,0.,-0.00036269,0.00089413,0.00000003,0.15095614,0.17464569,0.000
 00001,0.,0.00001393,-0.00000001,0.,-0.00002915,0.,0.00000001,0.0001330
 2,0.,0.,-0.00001326,0.00000001,0.,-0.00005608,0.,0.,-0.00004042,0.,0.,
 0.00010145,0.,0.,0.00000581,-0.00000002,0.00000004,-0.00030155,0.,0.,0
 .00000096,0.,0.,-0.00001785,0.,0.,-0.00000064,0.,0.,-0.00000714,0.0000
 0005,-0.00000008,0.00075370,0.00000012,0.00000004,-0.00491661,0.,-0.00
 000007,0.00452048,-0.00000194,-0.00000151,-0.04013684,-0.00000028,0.,0
 .00603035,0.,-0.00000004,0.00616848,0.,0.00000002,-0.00096388,-0.00000
 005,-0.00000005,0.00705871,0.,0.,-0.00042483,0.,0.,0.00011835,0.,0.,-0
 .00063971,0.,0.,0.00073104,0.,0.,0.00002391,0.,0.,0.00009914,0.,0.,-0.
 00009938,0.,0.,0.00014895,0.00000002,0.00000003,-0.00378244,0.00000210
 ,0.00000162,0.02604561,-0.00126632,0.00079836,-0.00000002,0.00094252,-
 0.00022224,-0.00000002,0.00020987,-0.00039881,0.00000002,-0.00009775,0
 .00008157,0.,-0.00174299,0.00025885,0.00000001,-0.00100030,0.00045502,
 -0.00000002,0.00013844,0.00008307,0.,0.00008053,-0.00015261,0.,0.00391
 563,-0.00125585,0.00000003,0.00028263,0.00026736,-0.00000001,-0.000306
 29,-0.00031514,0.00000001,0.00094655,-0.00036798,0.,-0.00074946,0.0003
 5921,0.,-0.00731509,-0.00291623,-0.00000005,0.01155596,-0.00103451,0.0
 0000012,-0.06384429,0.01698411,-0.00000026,0.00755137,-0.01185450,-0.0
 0000003,-0.01154659,0.00908927,-0.00000009,0.00365185,-0.00217742,-0.0
 0000004,-0.01237917,0.02375430,0.00000001,-0.28911654,0.03659294,-0.00
 000094,-0.00373764,-0.00493764,-0.00000003,0.00064921,0.00282251,0.000
 00002,0.00183223,-0.00050662,0.,0.00051401,-0.00140315,0.,0.00181455,0
 .00042421,0.00000001,0.00002739,0.00013181,0.,0.00019131,0.00008233,0.
 ,-0.00012062,-0.00022622,0.,0.00357395,0.00014930,0.00000003,-0.001509
 41,0.00106621,0.,0.39975481,0.00045726,-0.00028472,0.,-0.00032258,0.00
 007469,0.,-0.00006111,0.00017096,-0.00000001,0.00002474,-0.00002787,0.
 ,0.00062058,-0.00012965,0.,0.00030154,-0.00017722,0.,-0.00003581,-0.00
 003099,0.,-0.00005584,0.00005346,0.,-0.00130030,0.00051932,0.,-0.00011
 407,-0.00011029,0.,0.00011911,0.00013153,0.,-0.00034314,0.00013723,0.,
 0.00027705,-0.00012875,0.,0.00259426,0.00085883,0.,-0.00345334,0.00133
 812,-0.00000002,-0.01692451,0.01458025,-0.00000007,-0.00130484,-0.0047
 0159,-0.00000008,0.00472442,0.00024097,0.00000005,-0.00870462,-0.00681
 369,-0.00000008,0.05069229,-0.02783713,0.00000007,0.08518799,-0.131349
 16,0.,0.00261272,0.00283483,0.00000004,0.00247929,-0.00222501,0.,-0.00
 189525,-0.00021559,0.,0.00261217,0.00108077,0.00000002,0.00079264,-0.0
 0313691,-0.00000001,-0.00007315,-0.00007723,0.,-0.00001432,-0.00011674
 ,0.,0.00010022,-0.00066527,0.,-0.00113873,0.00301667,0.00000004,-0.000
 61524,0.00040515,0.,-0.07886725,0.66394102,0.,0.,0.00000358,0.,0.,-0.0
 0002238,0.,0.,0.00001326,0.,0.,-0.00000659,0.,0.,0.00000542,0.,0.,0.00
 003914,0.,0.,-0.00001035,0.,0.,-0.00000940,0.,0.,-0.00020556,0.,0.,-0.
 00000082,0.,0.,0.00000676,0.,0.,-0.00000050,0.,0.,0.00000400,0.,-0.000
 00003,0.00054410,0.00000006,0.,-0.00096538,-0.00000047,0.00000008,0.01
 150822,0.,-0.00000013,0.00819943,-0.00000005,0.00000006,-0.00108673,-0
 .00000005,-0.00000005,0.00393319,0.00000016,-0.00000005,0.00566973,-0.
 00000075,-0.00000022,-0.04371114,0.,0.,-0.00192822,0.00000001,0.,-0.00
 005415,0.,0.,-0.00047676,0.,0.,0.00010174,0.00000001,-0.00000002,0.000
 08334,0.,0.,0.00033653,0.,0.,0.00001741,0.,0.,0.00008789,0.00000004,0.
 00000004,-0.00426486,-0.00000002,0.00000001,-0.00065809,0.00000135,0.0
 0000224,0.02818741,0.00008219,-0.00005710,0.,-0.00006418,0.00001857,0.
 ,-0.00000960,0.00002279,0.,0.00000821,-0.00000763,0.,0.00011839,-0.000
 00451,0.,0.00007880,-0.00004002,0.,-0.00002182,-0.00000462,0.,-0.00001
 712,0.00002134,0.,-0.00027174,0.00002728,0.,-0.00002479,-0.00002092,0.
 ,0.00002986,0.00002393,0.,-0.00007334,0.00002794,0.,0.00006187,-0.0000
 2943,0.,0.00034388,0.00023674,0.,-0.00054567,-0.00033379,0.,0.00182588
 ,0.00214848,0.00000003,-0.00058763,0.00031787,0.,0.00050857,-0.0006715
 8,0.,0.00094531,0.00163993,0.,-0.00690424,0.00081668,-0.00000004,-0.00
 497107,0.04872884,0.00000019,-0.00070838,-0.00134562,0.,0.00018806,0.0
 0026428,0.,0.00021962,-0.00018490,0.,-0.00063477,-0.00019513,0.,0.0006
 4934,0.00029221,0.,-0.00001750,-0.00002723,0.,0.00004751,-0.00002851,0
 .,0.00000698,0.00014824,0.,-0.00083092,-0.00212356,-0.00000002,0.00008
 389,-0.00005502,0.,-0.04290033,-0.03837220,-0.00000032,0.05338475,-0.0
 0017656,0.00011405,0.,0.00013479,-0.00004018,0.,0.00003393,-0.00005460
 ,0.,-0.00001137,0.00001001,0.,-0.00025098,0.00003471,0.,-0.00013299,0.
 00007397,0.,0.00001656,0.00001274,0.,0.00000963,-0.00001919,0.,0.00057
 249,-0.00019865,0.,0.00004044,0.00003819,0.,-0.00004146,-0.00004674,0.
 ,0.00013249,-0.00005248,0.,-0.00010288,0.00004804,0.,-0.00107283,-0.00
 042647,0.,0.00170438,-0.00019327,0.00000002,-0.00628324,0.00506157,0.,
 0.00087519,-0.00197648,0.,-0.00154905,0.00145896,-0.00000001,-0.000103
 61,-0.00083078,-0.00000001,0.00175273,0.00308248,0.,0.00131697,-0.0191
 9890,-0.00000007,-0.00028442,0.00003510,0.,0.00004169,0.00032002,0.,0.
 00025325,-0.00005414,0.,0.00038641,-0.00015736,0.,0.00023058,0.0001179
 3,0.,0.00000206,-0.00000291,0.,0.00000867,0.00000943,0.,-0.00005161,-0
 .00011583,0.,0.00081430,-0.00028551,0.,-0.00026796,0.00012321,0.,0.013
 23575,-0.51135597,-0.00000196,-0.01123334,0.52446907,0.,0.,0.00002130,
 0.,0.,-0.00002785,0.,0.,-0.00002951,0.,0.,0.00000444,0.,0.,-0.00000089
 ,0.,0.,0.00000221,0.,0.,0.00001138,0.,0.,0.00000878,0.,0.,0.00008050,0
 .,0.,0.00000967,0.,0.,-0.00000755,0.,0.,0.00000359,0.,0.,-0.00000500,0
 .,0.,-0.00010370,0.,0.,0.00000446,0.,0.00000005,-0.00158761,0.,0.,-0.0
 0085175,0.,0.,0.00019173,0.,0.,0.00139852,-0.00000003,0.,0.00274674,0.
 ,0.00000013,-0.00218293,0.,0.,-0.00023570,0.,0.,0.00008350,0.,0.,0.000
 06616,0.,0.,-0.00035545,0.,0.,-0.00022070,0.,0.,-0.00003891,0.,0.,0.00
 000892,0.,0.,0.00001614,0.,-0.00000002,0.00062934,0.,0.,0.00013399,-0.
 00000013,-0.00000217,-0.00534020,0.00000016,0.00000202,0.00556640\\-0.
 00000008,-0.00000043,0.00000005,0.00000003,-0.00000040,-0.00000006,-0.
 00000015,-0.00000033,-0.00000002,-0.00000024,-0.00000035,0.,0.00000009
 ,-0.00000029,0.,-0.00000010,-0.00000023,0.00000005,0.00000019,-0.00000
 029,0.,-0.00000016,-0.00000015,0.,0.00000002,-0.00000021,-0.00000017,0
 .00000020,-0.00000059,0.00000011,0.00000016,-0.00000054,-0.00000007,-0
 .00000012,-0.00000056,-0.00000007,-0.00000016,-0.00000063,0.00000004,0
 .00000008,-0.00000009,0.00000013,-0.00000003,0.,0.00000008,0.00000025,
 0.00000023,0.,0.00000015,0.00000015,0.,0.00000010,0.00000007,-0.000000
 11,-0.00000003,0.00000022,-0.00000002,0.00000002,0.00000032,0.00000002
 ,0.00000013,0.00000031,-0.00000001,-0.00000006,0.00000042,0.,-0.000000
 17,0.00000040,0.,-0.00000022,0.00000029,0.,-0.00000015,0.00000017,0.,-
 0.00000001,0.00000050,0.,-0.00000023,0.00000047,0.,-0.00000031,0.00000
 027,0.,-0.00000019,0.00000010,0.,0.00000032,0.00000026,0.,0.00000023,0
 .00000004,0.,0.00000019,0.00000043,0.,0.00000027,0.00000045,0.\\\@


 IF YOU GIVE A BOY AND A PIG EVERYTHING THEY WANT,
 YOU'LL GET A BAD BOY AND A GOOD PIG.
 Job cpu time:  0 days 21 hours 38 minutes 58.3 seconds.
 File lengths (MBytes):  RWF=    912 Int=      0 D2E=      0 Chk=     21 Scr=      1
 Normal termination of Gaussian 03 at Tue Jan 18 14:17:53 2022.
